V -t * -v 1.0a5 -a 0
A -t * -n 1 -p 0 -o 0x7fffffff -c 30 -a 1
A -t * -h 1 -m 1073741823 -s 0
c -t * -i 1 -n Blue
c -t * -i 2 -n Red
n -t * -a 0 -s 0 -S UP -v circle -c black -i black
n -t * -a 1 -s 1 -S UP -v circle -c black -i black
n -t * -a 2 -s 2 -S UP -v square -c black -i black
n -t * -a 3 -s 3 -S UP -v circle -c black -i black
l -t * -s 0 -d 2 -S UP -r 1000000 -D 0.01 -c black
l -t * -s 1 -d 2 -S UP -r 1000000 -D 0.01 -c black
l -t * -s 3 -d 2 -S UP -r 1000000 -D 0.01 -c black
+ -t 0.5 -s 0 -d 2 -p cbr -e 210 -c 1 -i 0 -a 1 -x {0.0 3.0 0 ------- null}
- -t 0.5 -s 0 -d 2 -p cbr -e 210 -c 1 -i 0 -a 1 -x {0.0 3.0 0 ------- null}
h -t 0.5 -s 0 -d 2 -p cbr -e 210 -c 1 -i 0 -a 1 -x {0.0 3.0 -1 ------- null}
+ -t 0.51 -s 0 -d 2 -p cbr -e 210 -c 1 -i 1 -a 1 -x {0.0 3.0 1 ------- null}
- -t 0.51 -s 0 -d 2 -p cbr -e 210 -c 1 -i 1 -a 1 -x {0.0 3.0 1 ------- null}
h -t 0.51 -s 0 -d 2 -p cbr -e 210 -c 1 -i 1 -a 1 -x {0.0 3.0 -1 ------- null}
r -t 0.51168 -s 0 -d 2 -p cbr -e 210 -c 1 -i 0 -a 1 -x {0.0 3.0 0 ------- null}
+ -t 0.51168 -s 2 -d 3 -p cbr -e 210 -c 1 -i 0 -a 1 -x {0.0 3.0 0 ------- null}
- -t 0.51168 -s 2 -d 3 -p cbr -e 210 -c 1 -i 0 -a 1 -x {0.0 3.0 0 ------- null}
h -t 0.51168 -s 2 -d 3 -p cbr -e 210 -c 1 -i 0 -a 1 -x {0.0 3.0 -1 ------- null}
+ -t 0.52 -s 0 -d 2 -p cbr -e 210 -c 1 -i 2 -a 1 -x {0.0 3.0 2 ------- null}
- -t 0.52 -s 0 -d 2 -p cbr -e 210 -c 1 -i 2 -a 1 -x {0.0 3.0 2 ------- null}
h -t 0.52 -s 0 -d 2 -p cbr -e 210 -c 1 -i 2 -a 1 -x {0.0 3.0 -1 ------- null}
r -t 0.52168 -s 0 -d 2 -p cbr -e 210 -c 1 -i 1 -a 1 -x {0.0 3.0 1 ------- null}
+ -t 0.52168 -s 2 -d 3 -p cbr -e 210 -c 1 -i 1 -a 1 -x {0.0 3.0 1 ------- null}
- -t 0.52168 -s 2 -d 3 -p cbr -e 210 -c 1 -i 1 -a 1 -x {0.0 3.0 1 ------- null}
h -t 0.52168 -s 2 -d 3 -p cbr -e 210 -c 1 -i 1 -a 1 -x {0.0 3.0 -1 ------- null}
r -t 0.52336 -s 2 -d 3 -p cbr -e 210 -c 1 -i 0 -a 1 -x {0.0 3.0 0 ------- null}
+ -t 0.53 -s 0 -d 2 -p cbr -e 210 -c 1 -i 3 -a 1 -x {0.0 3.0 3 ------- null}
- -t 0.53 -s 0 -d 2 -p cbr -e 210 -c 1 -i 3 -a 1 -x {0.0 3.0 3 ------- null}
h -t 0.53 -s 0 -d 2 -p cbr -e 210 -c 1 -i 3 -a 1 -x {0.0 3.0 -1 ------- null}
r -t 0.53168 -s 0 -d 2 -p cbr -e 210 -c 1 -i 2 -a 1 -x {0.0 3.0 2 ------- null}
+ -t 0.53168 -s 2 -d 3 -p cbr -e 210 -c 1 -i 2 -a 1 -x {0.0 3.0 2 ------- null}
- -t 0.53168 -s 2 -d 3 -p cbr -e 210 -c 1 -i 2 -a 1 -x {0.0 3.0 2 ------- null}
h -t 0.53168 -s 2 -d 3 -p cbr -e 210 -c 1 -i 2 -a 1 -x {0.0 3.0 -1 ------- null}
r -t 0.53336 -s 2 -d 3 -p cbr -e 210 -c 1 -i 1 -a 1 -x {0.0 3.0 1 ------- null}
+ -t 0.54 -s 0 -d 2 -p cbr -e 210 -c 1 -i 4 -a 1 -x {0.0 3.0 4 ------- null}
- -t 0.54 -s 0 -d 2 -p cbr -e 210 -c 1 -i 4 -a 1 -x {0.0 3.0 4 ------- null}
h -t 0.54 -s 0 -d 2 -p cbr -e 210 -c 1 -i 4 -a 1 -x {0.0 3.0 -1 ------- null}
r -t 0.54168 -s 0 -d 2 -p cbr -e 210 -c 1 -i 3 -a 1 -x {0.0 3.0 3 ------- null}
+ -t 0.54168 -s 2 -d 3 -p cbr -e 210 -c 1 -i 3 -a 1 -x {0.0 3.0 3 ------- null}
- -t 0.54168 -s 2 -d 3 -p cbr -e 210 -c 1 -i 3 -a 1 -x {0.0 3.0 3 ------- null}
h -t 0.54168 -s 2 -d 3 -p cbr -e 210 -c 1 -i 3 -a 1 -x {0.0 3.0 -1 ------- null}
r -t 0.54336 -s 2 -d 3 -p cbr -e 210 -c 1 -i 2 -a 1 -x {0.0 3.0 2 ------- null}
+ -t 0.55 -s 0 -d 2 -p cbr -e 210 -c 1 -i 5 -a 1 -x {0.0 3.0 5 ------- null}
- -t 0.55 -s 0 -d 2 -p cbr -e 210 -c 1 -i 5 -a 1 -x {0.0 3.0 5 ------- null}
h -t 0.55 -s 0 -d 2 -p cbr -e 210 -c 1 -i 5 -a 1 -x {0.0 3.0 -1 ------- null}
r -t 0.55168 -s 0 -d 2 -p cbr -e 210 -c 1 -i 4 -a 1 -x {0.0 3.0 4 ------- null}
+ -t 0.55168 -s 2 -d 3 -p cbr -e 210 -c 1 -i 4 -a 1 -x {0.0 3.0 4 ------- null}
- -t 0.55168 -s 2 -d 3 -p cbr -e 210 -c 1 -i 4 -a 1 -x {0.0 3.0 4 ------- null}
h -t 0.55168 -s 2 -d 3 -p cbr -e 210 -c 1 -i 4 -a 1 -x {0.0 3.0 -1 ------- null}
r -t 0.55336 -s 2 -d 3 -p cbr -e 210 -c 1 -i 3 -a 1 -x {0.0 3.0 3 ------- null}
+ -t 0.56 -s 0 -d 2 -p cbr -e 210 -c 1 -i 6 -a 1 -x {0.0 3.0 6 ------- null}
- -t 0.56 -s 0 -d 2 -p cbr -e 210 -c 1 -i 6 -a 1 -x {0.0 3.0 6 ------- null}
h -t 0.56 -s 0 -d 2 -p cbr -e 210 -c 1 -i 6 -a 1 -x {0.0 3.0 -1 ------- null}
r -t 0.56168 -s 0 -d 2 -p cbr -e 210 -c 1 -i 5 -a 1 -x {0.0 3.0 5 ------- null}
+ -t 0.56168 -s 2 -d 3 -p cbr -e 210 -c 1 -i 5 -a 1 -x {0.0 3.0 5 ------- null}
- -t 0.56168 -s 2 -d 3 -p cbr -e 210 -c 1 -i 5 -a 1 -x {0.0 3.0 5 ------- null}
h -t 0.56168 -s 2 -d 3 -p cbr -e 210 -c 1 -i 5 -a 1 -x {0.0 3.0 -1 ------- null}
r -t 0.56336 -s 2 -d 3 -p cbr -e 210 -c 1 -i 4 -a 1 -x {0.0 3.0 4 ------- null}
+ -t 0.57 -s 0 -d 2 -p cbr -e 210 -c 1 -i 7 -a 1 -x {0.0 3.0 7 ------- null}
- -t 0.57 -s 0 -d 2 -p cbr -e 210 -c 1 -i 7 -a 1 -x {0.0 3.0 7 ------- null}
h -t 0.57 -s 0 -d 2 -p cbr -e 210 -c 1 -i 7 -a 1 -x {0.0 3.0 -1 ------- null}
r -t 0.57168 -s 0 -d 2 -p cbr -e 210 -c 1 -i 6 -a 1 -x {0.0 3.0 6 ------- null}
+ -t 0.57168 -s 2 -d 3 -p cbr -e 210 -c 1 -i 6 -a 1 -x {0.0 3.0 6 ------- null}
- -t 0.57168 -s 2 -d 3 -p cbr -e 210 -c 1 -i 6 -a 1 -x {0.0 3.0 6 ------- null}
h -t 0.57168 -s 2 -d 3 -p cbr -e 210 -c 1 -i 6 -a 1 -x {0.0 3.0 -1 ------- null}
r -t 0.57336 -s 2 -d 3 -p cbr -e 210 -c 1 -i 5 -a 1 -x {0.0 3.0 5 ------- null}
+ -t 0.58 -s 0 -d 2 -p cbr -e 210 -c 1 -i 8 -a 1 -x {0.0 3.0 8 ------- null}
- -t 0.58 -s 0 -d 2 -p cbr -e 210 -c 1 -i 8 -a 1 -x {0.0 3.0 8 ------- null}
h -t 0.58 -s 0 -d 2 -p cbr -e 210 -c 1 -i 8 -a 1 -x {0.0 3.0 -1 ------- null}
r -t 0.58168 -s 0 -d 2 -p cbr -e 210 -c 1 -i 7 -a 1 -x {0.0 3.0 7 ------- null}
+ -t 0.58168 -s 2 -d 3 -p cbr -e 210 -c 1 -i 7 -a 1 -x {0.0 3.0 7 ------- null}
- -t 0.58168 -s 2 -d 3 -p cbr -e 210 -c 1 -i 7 -a 1 -x {0.0 3.0 7 ------- null}
h -t 0.58168 -s 2 -d 3 -p cbr -e 210 -c 1 -i 7 -a 1 -x {0.0 3.0 -1 ------- null}
r -t 0.58336 -s 2 -d 3 -p cbr -e 210 -c 1 -i 6 -a 1 -x {0.0 3.0 6 ------- null}
+ -t 0.59 -s 0 -d 2 -p cbr -e 210 -c 1 -i 9 -a 1 -x {0.0 3.0 9 ------- null}
- -t 0.59 -s 0 -d 2 -p cbr -e 210 -c 1 -i 9 -a 1 -x {0.0 3.0 9 ------- null}
h -t 0.59 -s 0 -d 2 -p cbr -e 210 -c 1 -i 9 -a 1 -x {0.0 3.0 -1 ------- null}
r -t 0.59168 -s 0 -d 2 -p cbr -e 210 -c 1 -i 8 -a 1 -x {0.0 3.0 8 ------- null}
+ -t 0.59168 -s 2 -d 3 -p cbr -e 210 -c 1 -i 8 -a 1 -x {0.0 3.0 8 ------- null}
- -t 0.59168 -s 2 -d 3 -p cbr -e 210 -c 1 -i 8 -a 1 -x {0.0 3.0 8 ------- null}
h -t 0.59168 -s 2 -d 3 -p cbr -e 210 -c 1 -i 8 -a 1 -x {0.0 3.0 -1 ------- null}
r -t 0.59336 -s 2 -d 3 -p cbr -e 210 -c 1 -i 7 -a 1 -x {0.0 3.0 7 ------- null}
+ -t 0.6 -s 0 -d 2 -p cbr -e 210 -c 1 -i 10 -a 1 -x {0.0 3.0 10 ------- null}
- -t 0.6 -s 0 -d 2 -p cbr -e 210 -c 1 -i 10 -a 1 -x {0.0 3.0 10 ------- null}
h -t 0.6 -s 0 -d 2 -p cbr -e 210 -c 1 -i 10 -a 1 -x {0.0 3.0 -1 ------- null}
r -t 0.60168 -s 0 -d 2 -p cbr -e 210 -c 1 -i 9 -a 1 -x {0.0 3.0 9 ------- null}
+ -t 0.60168 -s 2 -d 3 -p cbr -e 210 -c 1 -i 9 -a 1 -x {0.0 3.0 9 ------- null}
- -t 0.60168 -s 2 -d 3 -p cbr -e 210 -c 1 -i 9 -a 1 -x {0.0 3.0 9 ------- null}
h -t 0.60168 -s 2 -d 3 -p cbr -e 210 -c 1 -i 9 -a 1 -x {0.0 3.0 -1 ------- null}
r -t 0.60336 -s 2 -d 3 -p cbr -e 210 -c 1 -i 8 -a 1 -x {0.0 3.0 8 ------- null}
+ -t 0.61 -s 0 -d 2 -p cbr -e 210 -c 1 -i 11 -a 1 -x {0.0 3.0 11 ------- null}
- -t 0.61 -s 0 -d 2 -p cbr -e 210 -c 1 -i 11 -a 1 -x {0.0 3.0 11 ------- null}
h -t 0.61 -s 0 -d 2 -p cbr -e 210 -c 1 -i 11 -a 1 -x {0.0 3.0 -1 ------- null}
r -t 0.61168 -s 0 -d 2 -p cbr -e 210 -c 1 -i 10 -a 1 -x {0.0 3.0 10 ------- null}
+ -t 0.61168 -s 2 -d 3 -p cbr -e 210 -c 1 -i 10 -a 1 -x {0.0 3.0 10 ------- null}
- -t 0.61168 -s 2 -d 3 -p cbr -e 210 -c 1 -i 10 -a 1 -x {0.0 3.0 10 ------- null}
h -t 0.61168 -s 2 -d 3 -p cbr -e 210 -c 1 -i 10 -a 1 -x {0.0 3.0 -1 ------- null}
r -t 0.61336 -s 2 -d 3 -p cbr -e 210 -c 1 -i 9 -a 1 -x {0.0 3.0 9 ------- null}
+ -t 0.62 -s 0 -d 2 -p cbr -e 210 -c 1 -i 12 -a 1 -x {0.0 3.0 12 ------- null}
- -t 0.62 -s 0 -d 2 -p cbr -e 210 -c 1 -i 12 -a 1 -x {0.0 3.0 12 ------- null}
h -t 0.62 -s 0 -d 2 -p cbr -e 210 -c 1 -i 12 -a 1 -x {0.0 3.0 -1 ------- null}
r -t 0.62168 -s 0 -d 2 -p cbr -e 210 -c 1 -i 11 -a 1 -x {0.0 3.0 11 ------- null}
+ -t 0.62168 -s 2 -d 3 -p cbr -e 210 -c 1 -i 11 -a 1 -x {0.0 3.0 11 ------- null}
- -t 0.62168 -s 2 -d 3 -p cbr -e 210 -c 1 -i 11 -a 1 -x {0.0 3.0 11 ------- null}
h -t 0.62168 -s 2 -d 3 -p cbr -e 210 -c 1 -i 11 -a 1 -x {0.0 3.0 -1 ------- null}
r -t 0.62336 -s 2 -d 3 -p cbr -e 210 -c 1 -i 10 -a 1 -x {0.0 3.0 10 ------- null}
+ -t 0.63 -s 0 -d 2 -p cbr -e 210 -c 1 -i 13 -a 1 -x {0.0 3.0 13 ------- null}
- -t 0.63 -s 0 -d 2 -p cbr -e 210 -c 1 -i 13 -a 1 -x {0.0 3.0 13 ------- null}
h -t 0.63 -s 0 -d 2 -p cbr -e 210 -c 1 -i 13 -a 1 -x {0.0 3.0 -1 ------- null}
r -t 0.63168 -s 0 -d 2 -p cbr -e 210 -c 1 -i 12 -a 1 -x {0.0 3.0 12 ------- null}
+ -t 0.63168 -s 2 -d 3 -p cbr -e 210 -c 1 -i 12 -a 1 -x {0.0 3.0 12 ------- null}
- -t 0.63168 -s 2 -d 3 -p cbr -e 210 -c 1 -i 12 -a 1 -x {0.0 3.0 12 ------- null}
h -t 0.63168 -s 2 -d 3 -p cbr -e 210 -c 1 -i 12 -a 1 -x {0.0 3.0 -1 ------- null}
r -t 0.63336 -s 2 -d 3 -p cbr -e 210 -c 1 -i 11 -a 1 -x {0.0 3.0 11 ------- null}
+ -t 0.64 -s 0 -d 2 -p cbr -e 210 -c 1 -i 14 -a 1 -x {0.0 3.0 14 ------- null}
- -t 0.64 -s 0 -d 2 -p cbr -e 210 -c 1 -i 14 -a 1 -x {0.0 3.0 14 ------- null}
h -t 0.64 -s 0 -d 2 -p cbr -e 210 -c 1 -i 14 -a 1 -x {0.0 3.0 -1 ------- null}
r -t 0.64168 -s 0 -d 2 -p cbr -e 210 -c 1 -i 13 -a 1 -x {0.0 3.0 13 ------- null}
+ -t 0.64168 -s 2 -d 3 -p cbr -e 210 -c 1 -i 13 -a 1 -x {0.0 3.0 13 ------- null}
- -t 0.64168 -s 2 -d 3 -p cbr -e 210 -c 1 -i 13 -a 1 -x {0.0 3.0 13 ------- null}
h -t 0.64168 -s 2 -d 3 -p cbr -e 210 -c 1 -i 13 -a 1 -x {0.0 3.0 -1 ------- null}
r -t 0.64336 -s 2 -d 3 -p cbr -e 210 -c 1 -i 12 -a 1 -x {0.0 3.0 12 ------- null}
+ -t 0.65 -s 0 -d 2 -p cbr -e 210 -c 1 -i 15 -a 1 -x {0.0 3.0 15 ------- null}
- -t 0.65 -s 0 -d 2 -p cbr -e 210 -c 1 -i 15 -a 1 -x {0.0 3.0 15 ------- null}
h -t 0.65 -s 0 -d 2 -p cbr -e 210 -c 1 -i 15 -a 1 -x {0.0 3.0 -1 ------- null}
r -t 0.65168 -s 0 -d 2 -p cbr -e 210 -c 1 -i 14 -a 1 -x {0.0 3.0 14 ------- null}
+ -t 0.65168 -s 2 -d 3 -p cbr -e 210 -c 1 -i 14 -a 1 -x {0.0 3.0 14 ------- null}
- -t 0.65168 -s 2 -d 3 -p cbr -e 210 -c 1 -i 14 -a 1 -x {0.0 3.0 14 ------- null}
h -t 0.65168 -s 2 -d 3 -p cbr -e 210 -c 1 -i 14 -a 1 -x {0.0 3.0 -1 ------- null}
r -t 0.65336 -s 2 -d 3 -p cbr -e 210 -c 1 -i 13 -a 1 -x {0.0 3.0 13 ------- null}
+ -t 0.66 -s 0 -d 2 -p cbr -e 210 -c 1 -i 16 -a 1 -x {0.0 3.0 16 ------- null}
- -t 0.66 -s 0 -d 2 -p cbr -e 210 -c 1 -i 16 -a 1 -x {0.0 3.0 16 ------- null}
h -t 0.66 -s 0 -d 2 -p cbr -e 210 -c 1 -i 16 -a 1 -x {0.0 3.0 -1 ------- null}
r -t 0.66168 -s 0 -d 2 -p cbr -e 210 -c 1 -i 15 -a 1 -x {0.0 3.0 15 ------- null}
+ -t 0.66168 -s 2 -d 3 -p cbr -e 210 -c 1 -i 15 -a 1 -x {0.0 3.0 15 ------- null}
- -t 0.66168 -s 2 -d 3 -p cbr -e 210 -c 1 -i 15 -a 1 -x {0.0 3.0 15 ------- null}
h -t 0.66168 -s 2 -d 3 -p cbr -e 210 -c 1 -i 15 -a 1 -x {0.0 3.0 -1 ------- null}
r -t 0.66336 -s 2 -d 3 -p cbr -e 210 -c 1 -i 14 -a 1 -x {0.0 3.0 14 ------- null}
+ -t 0.67 -s 0 -d 2 -p cbr -e 210 -c 1 -i 17 -a 1 -x {0.0 3.0 17 ------- null}
- -t 0.67 -s 0 -d 2 -p cbr -e 210 -c 1 -i 17 -a 1 -x {0.0 3.0 17 ------- null}
h -t 0.67 -s 0 -d 2 -p cbr -e 210 -c 1 -i 17 -a 1 -x {0.0 3.0 -1 ------- null}
r -t 0.67168 -s 0 -d 2 -p cbr -e 210 -c 1 -i 16 -a 1 -x {0.0 3.0 16 ------- null}
+ -t 0.67168 -s 2 -d 3 -p cbr -e 210 -c 1 -i 16 -a 1 -x {0.0 3.0 16 ------- null}
- -t 0.67168 -s 2 -d 3 -p cbr -e 210 -c 1 -i 16 -a 1 -x {0.0 3.0 16 ------- null}
h -t 0.67168 -s 2 -d 3 -p cbr -e 210 -c 1 -i 16 -a 1 -x {0.0 3.0 -1 ------- null}
r -t 0.67336 -s 2 -d 3 -p cbr -e 210 -c 1 -i 15 -a 1 -x {0.0 3.0 15 ------- null}
+ -t 0.68 -s 0 -d 2 -p cbr -e 210 -c 1 -i 18 -a 1 -x {0.0 3.0 18 ------- null}
- -t 0.68 -s 0 -d 2 -p cbr -e 210 -c 1 -i 18 -a 1 -x {0.0 3.0 18 ------- null}
h -t 0.68 -s 0 -d 2 -p cbr -e 210 -c 1 -i 18 -a 1 -x {0.0 3.0 -1 ------- null}
r -t 0.68168 -s 0 -d 2 -p cbr -e 210 -c 1 -i 17 -a 1 -x {0.0 3.0 17 ------- null}
+ -t 0.68168 -s 2 -d 3 -p cbr -e 210 -c 1 -i 17 -a 1 -x {0.0 3.0 17 ------- null}
- -t 0.68168 -s 2 -d 3 -p cbr -e 210 -c 1 -i 17 -a 1 -x {0.0 3.0 17 ------- null}
h -t 0.68168 -s 2 -d 3 -p cbr -e 210 -c 1 -i 17 -a 1 -x {0.0 3.0 -1 ------- null}
r -t 0.68336 -s 2 -d 3 -p cbr -e 210 -c 1 -i 16 -a 1 -x {0.0 3.0 16 ------- null}
+ -t 0.69 -s 0 -d 2 -p cbr -e 210 -c 1 -i 19 -a 1 -x {0.0 3.0 19 ------- null}
- -t 0.69 -s 0 -d 2 -p cbr -e 210 -c 1 -i 19 -a 1 -x {0.0 3.0 19 ------- null}
h -t 0.69 -s 0 -d 2 -p cbr -e 210 -c 1 -i 19 -a 1 -x {0.0 3.0 -1 ------- null}
r -t 0.69168 -s 0 -d 2 -p cbr -e 210 -c 1 -i 18 -a 1 -x {0.0 3.0 18 ------- null}
+ -t 0.69168 -s 2 -d 3 -p cbr -e 210 -c 1 -i 18 -a 1 -x {0.0 3.0 18 ------- null}
- -t 0.69168 -s 2 -d 3 -p cbr -e 210 -c 1 -i 18 -a 1 -x {0.0 3.0 18 ------- null}
h -t 0.69168 -s 2 -d 3 -p cbr -e 210 -c 1 -i 18 -a 1 -x {0.0 3.0 -1 ------- null}
r -t 0.69336 -s 2 -d 3 -p cbr -e 210 -c 1 -i 17 -a 1 -x {0.0 3.0 17 ------- null}
+ -t 0.7 -s 0 -d 2 -p cbr -e 210 -c 1 -i 20 -a 1 -x {0.0 3.0 20 ------- null}
- -t 0.7 -s 0 -d 2 -p cbr -e 210 -c 1 -i 20 -a 1 -x {0.0 3.0 20 ------- null}
h -t 0.7 -s 0 -d 2 -p cbr -e 210 -c 1 -i 20 -a 1 -x {0.0 3.0 -1 ------- null}
r -t 0.70168 -s 0 -d 2 -p cbr -e 210 -c 1 -i 19 -a 1 -x {0.0 3.0 19 ------- null}
+ -t 0.70168 -s 2 -d 3 -p cbr -e 210 -c 1 -i 19 -a 1 -x {0.0 3.0 19 ------- null}
- -t 0.70168 -s 2 -d 3 -p cbr -e 210 -c 1 -i 19 -a 1 -x {0.0 3.0 19 ------- null}
h -t 0.70168 -s 2 -d 3 -p cbr -e 210 -c 1 -i 19 -a 1 -x {0.0 3.0 -1 ------- null}
r -t 0.70336 -s 2 -d 3 -p cbr -e 210 -c 1 -i 18 -a 1 -x {0.0 3.0 18 ------- null}
+ -t 0.71 -s 0 -d 2 -p cbr -e 210 -c 1 -i 21 -a 1 -x {0.0 3.0 21 ------- null}
- -t 0.71 -s 0 -d 2 -p cbr -e 210 -c 1 -i 21 -a 1 -x {0.0 3.0 21 ------- null}
h -t 0.71 -s 0 -d 2 -p cbr -e 210 -c 1 -i 21 -a 1 -x {0.0 3.0 -1 ------- null}
r -t 0.71168 -s 0 -d 2 -p cbr -e 210 -c 1 -i 20 -a 1 -x {0.0 3.0 20 ------- null}
+ -t 0.71168 -s 2 -d 3 -p cbr -e 210 -c 1 -i 20 -a 1 -x {0.0 3.0 20 ------- null}
- -t 0.71168 -s 2 -d 3 -p cbr -e 210 -c 1 -i 20 -a 1 -x {0.0 3.0 20 ------- null}
h -t 0.71168 -s 2 -d 3 -p cbr -e 210 -c 1 -i 20 -a 1 -x {0.0 3.0 -1 ------- null}
r -t 0.71336 -s 2 -d 3 -p cbr -e 210 -c 1 -i 19 -a 1 -x {0.0 3.0 19 ------- null}
+ -t 0.72 -s 0 -d 2 -p cbr -e 210 -c 1 -i 22 -a 1 -x {0.0 3.0 22 ------- null}
- -t 0.72 -s 0 -d 2 -p cbr -e 210 -c 1 -i 22 -a 1 -x {0.0 3.0 22 ------- null}
h -t 0.72 -s 0 -d 2 -p cbr -e 210 -c 1 -i 22 -a 1 -x {0.0 3.0 -1 ------- null}
r -t 0.72168 -s 0 -d 2 -p cbr -e 210 -c 1 -i 21 -a 1 -x {0.0 3.0 21 ------- null}
+ -t 0.72168 -s 2 -d 3 -p cbr -e 210 -c 1 -i 21 -a 1 -x {0.0 3.0 21 ------- null}
- -t 0.72168 -s 2 -d 3 -p cbr -e 210 -c 1 -i 21 -a 1 -x {0.0 3.0 21 ------- null}
h -t 0.72168 -s 2 -d 3 -p cbr -e 210 -c 1 -i 21 -a 1 -x {0.0 3.0 -1 ------- null}
r -t 0.72336 -s 2 -d 3 -p cbr -e 210 -c 1 -i 20 -a 1 -x {0.0 3.0 20 ------- null}
+ -t 0.73 -s 0 -d 2 -p cbr -e 210 -c 1 -i 23 -a 1 -x {0.0 3.0 23 ------- null}
- -t 0.73 -s 0 -d 2 -p cbr -e 210 -c 1 -i 23 -a 1 -x {0.0 3.0 23 ------- null}
h -t 0.73 -s 0 -d 2 -p cbr -e 210 -c 1 -i 23 -a 1 -x {0.0 3.0 -1 ------- null}
r -t 0.73168 -s 0 -d 2 -p cbr -e 210 -c 1 -i 22 -a 1 -x {0.0 3.0 22 ------- null}
+ -t 0.73168 -s 2 -d 3 -p cbr -e 210 -c 1 -i 22 -a 1 -x {0.0 3.0 22 ------- null}
- -t 0.73168 -s 2 -d 3 -p cbr -e 210 -c 1 -i 22 -a 1 -x {0.0 3.0 22 ------- null}
h -t 0.73168 -s 2 -d 3 -p cbr -e 210 -c 1 -i 22 -a 1 -x {0.0 3.0 -1 ------- null}
r -t 0.73336 -s 2 -d 3 -p cbr -e 210 -c 1 -i 21 -a 1 -x {0.0 3.0 21 ------- null}
+ -t 0.74 -s 0 -d 2 -p cbr -e 210 -c 1 -i 24 -a 1 -x {0.0 3.0 24 ------- null}
- -t 0.74 -s 0 -d 2 -p cbr -e 210 -c 1 -i 24 -a 1 -x {0.0 3.0 24 ------- null}
h -t 0.74 -s 0 -d 2 -p cbr -e 210 -c 1 -i 24 -a 1 -x {0.0 3.0 -1 ------- null}
r -t 0.74168 -s 0 -d 2 -p cbr -e 210 -c 1 -i 23 -a 1 -x {0.0 3.0 23 ------- null}
+ -t 0.74168 -s 2 -d 3 -p cbr -e 210 -c 1 -i 23 -a 1 -x {0.0 3.0 23 ------- null}
- -t 0.74168 -s 2 -d 3 -p cbr -e 210 -c 1 -i 23 -a 1 -x {0.0 3.0 23 ------- null}
h -t 0.74168 -s 2 -d 3 -p cbr -e 210 -c 1 -i 23 -a 1 -x {0.0 3.0 -1 ------- null}
r -t 0.74336 -s 2 -d 3 -p cbr -e 210 -c 1 -i 22 -a 1 -x {0.0 3.0 22 ------- null}
+ -t 0.75 -s 0 -d 2 -p cbr -e 210 -c 1 -i 25 -a 1 -x {0.0 3.0 25 ------- null}
- -t 0.75 -s 0 -d 2 -p cbr -e 210 -c 1 -i 25 -a 1 -x {0.0 3.0 25 ------- null}
h -t 0.75 -s 0 -d 2 -p cbr -e 210 -c 1 -i 25 -a 1 -x {0.0 3.0 -1 ------- null}
r -t 0.75168 -s 0 -d 2 -p cbr -e 210 -c 1 -i 24 -a 1 -x {0.0 3.0 24 ------- null}
+ -t 0.75168 -s 2 -d 3 -p cbr -e 210 -c 1 -i 24 -a 1 -x {0.0 3.0 24 ------- null}
- -t 0.75168 -s 2 -d 3 -p cbr -e 210 -c 1 -i 24 -a 1 -x {0.0 3.0 24 ------- null}
h -t 0.75168 -s 2 -d 3 -p cbr -e 210 -c 1 -i 24 -a 1 -x {0.0 3.0 -1 ------- null}
r -t 0.75336 -s 2 -d 3 -p cbr -e 210 -c 1 -i 23 -a 1 -x {0.0 3.0 23 ------- null}
+ -t 0.76 -s 0 -d 2 -p cbr -e 210 -c 1 -i 26 -a 1 -x {0.0 3.0 26 ------- null}
- -t 0.76 -s 0 -d 2 -p cbr -e 210 -c 1 -i 26 -a 1 -x {0.0 3.0 26 ------- null}
h -t 0.76 -s 0 -d 2 -p cbr -e 210 -c 1 -i 26 -a 1 -x {0.0 3.0 -1 ------- null}
r -t 0.76168 -s 0 -d 2 -p cbr -e 210 -c 1 -i 25 -a 1 -x {0.0 3.0 25 ------- null}
+ -t 0.76168 -s 2 -d 3 -p cbr -e 210 -c 1 -i 25 -a 1 -x {0.0 3.0 25 ------- null}
- -t 0.76168 -s 2 -d 3 -p cbr -e 210 -c 1 -i 25 -a 1 -x {0.0 3.0 25 ------- null}
h -t 0.76168 -s 2 -d 3 -p cbr -e 210 -c 1 -i 25 -a 1 -x {0.0 3.0 -1 ------- null}
r -t 0.76336 -s 2 -d 3 -p cbr -e 210 -c 1 -i 24 -a 1 -x {0.0 3.0 24 ------- null}
+ -t 0.77 -s 0 -d 2 -p cbr -e 210 -c 1 -i 27 -a 1 -x {0.0 3.0 27 ------- null}
- -t 0.77 -s 0 -d 2 -p cbr -e 210 -c 1 -i 27 -a 1 -x {0.0 3.0 27 ------- null}
h -t 0.77 -s 0 -d 2 -p cbr -e 210 -c 1 -i 27 -a 1 -x {0.0 3.0 -1 ------- null}
r -t 0.77168 -s 0 -d 2 -p cbr -e 210 -c 1 -i 26 -a 1 -x {0.0 3.0 26 ------- null}
+ -t 0.77168 -s 2 -d 3 -p cbr -e 210 -c 1 -i 26 -a 1 -x {0.0 3.0 26 ------- null}
- -t 0.77168 -s 2 -d 3 -p cbr -e 210 -c 1 -i 26 -a 1 -x {0.0 3.0 26 ------- null}
h -t 0.77168 -s 2 -d 3 -p cbr -e 210 -c 1 -i 26 -a 1 -x {0.0 3.0 -1 ------- null}
r -t 0.77336 -s 2 -d 3 -p cbr -e 210 -c 1 -i 25 -a 1 -x {0.0 3.0 25 ------- null}
+ -t 0.78 -s 0 -d 2 -p cbr -e 210 -c 1 -i 28 -a 1 -x {0.0 3.0 28 ------- null}
- -t 0.78 -s 0 -d 2 -p cbr -e 210 -c 1 -i 28 -a 1 -x {0.0 3.0 28 ------- null}
h -t 0.78 -s 0 -d 2 -p cbr -e 210 -c 1 -i 28 -a 1 -x {0.0 3.0 -1 ------- null}
r -t 0.78168 -s 0 -d 2 -p cbr -e 210 -c 1 -i 27 -a 1 -x {0.0 3.0 27 ------- null}
+ -t 0.78168 -s 2 -d 3 -p cbr -e 210 -c 1 -i 27 -a 1 -x {0.0 3.0 27 ------- null}
- -t 0.78168 -s 2 -d 3 -p cbr -e 210 -c 1 -i 27 -a 1 -x {0.0 3.0 27 ------- null}
h -t 0.78168 -s 2 -d 3 -p cbr -e 210 -c 1 -i 27 -a 1 -x {0.0 3.0 -1 ------- null}
r -t 0.78336 -s 2 -d 3 -p cbr -e 210 -c 1 -i 26 -a 1 -x {0.0 3.0 26 ------- null}
+ -t 0.79 -s 0 -d 2 -p cbr -e 210 -c 1 -i 29 -a 1 -x {0.0 3.0 29 ------- null}
- -t 0.79 -s 0 -d 2 -p cbr -e 210 -c 1 -i 29 -a 1 -x {0.0 3.0 29 ------- null}
h -t 0.79 -s 0 -d 2 -p cbr -e 210 -c 1 -i 29 -a 1 -x {0.0 3.0 -1 ------- null}
r -t 0.79168 -s 0 -d 2 -p cbr -e 210 -c 1 -i 28 -a 1 -x {0.0 3.0 28 ------- null}
+ -t 0.79168 -s 2 -d 3 -p cbr -e 210 -c 1 -i 28 -a 1 -x {0.0 3.0 28 ------- null}
- -t 0.79168 -s 2 -d 3 -p cbr -e 210 -c 1 -i 28 -a 1 -x {0.0 3.0 28 ------- null}
h -t 0.79168 -s 2 -d 3 -p cbr -e 210 -c 1 -i 28 -a 1 -x {0.0 3.0 -1 ------- null}
r -t 0.79336 -s 2 -d 3 -p cbr -e 210 -c 1 -i 27 -a 1 -x {0.0 3.0 27 ------- null}
+ -t 0.8 -s 0 -d 2 -p cbr -e 210 -c 1 -i 30 -a 1 -x {0.0 3.0 30 ------- null}
- -t 0.8 -s 0 -d 2 -p cbr -e 210 -c 1 -i 30 -a 1 -x {0.0 3.0 30 ------- null}
h -t 0.8 -s 0 -d 2 -p cbr -e 210 -c 1 -i 30 -a 1 -x {0.0 3.0 -1 ------- null}
r -t 0.80168 -s 0 -d 2 -p cbr -e 210 -c 1 -i 29 -a 1 -x {0.0 3.0 29 ------- null}
+ -t 0.80168 -s 2 -d 3 -p cbr -e 210 -c 1 -i 29 -a 1 -x {0.0 3.0 29 ------- null}
- -t 0.80168 -s 2 -d 3 -p cbr -e 210 -c 1 -i 29 -a 1 -x {0.0 3.0 29 ------- null}
h -t 0.80168 -s 2 -d 3 -p cbr -e 210 -c 1 -i 29 -a 1 -x {0.0 3.0 -1 ------- null}
r -t 0.80336 -s 2 -d 3 -p cbr -e 210 -c 1 -i 28 -a 1 -x {0.0 3.0 28 ------- null}
+ -t 0.81 -s 0 -d 2 -p cbr -e 210 -c 1 -i 31 -a 1 -x {0.0 3.0 31 ------- null}
- -t 0.81 -s 0 -d 2 -p cbr -e 210 -c 1 -i 31 -a 1 -x {0.0 3.0 31 ------- null}
h -t 0.81 -s 0 -d 2 -p cbr -e 210 -c 1 -i 31 -a 1 -x {0.0 3.0 -1 ------- null}
r -t 0.81168 -s 0 -d 2 -p cbr -e 210 -c 1 -i 30 -a 1 -x {0.0 3.0 30 ------- null}
+ -t 0.81168 -s 2 -d 3 -p cbr -e 210 -c 1 -i 30 -a 1 -x {0.0 3.0 30 ------- null}
- -t 0.81168 -s 2 -d 3 -p cbr -e 210 -c 1 -i 30 -a 1 -x {0.0 3.0 30 ------- null}
h -t 0.81168 -s 2 -d 3 -p cbr -e 210 -c 1 -i 30 -a 1 -x {0.0 3.0 -1 ------- null}
r -t 0.81336 -s 2 -d 3 -p cbr -e 210 -c 1 -i 29 -a 1 -x {0.0 3.0 29 ------- null}
+ -t 0.82 -s 0 -d 2 -p cbr -e 210 -c 1 -i 32 -a 1 -x {0.0 3.0 32 ------- null}
- -t 0.82 -s 0 -d 2 -p cbr -e 210 -c 1 -i 32 -a 1 -x {0.0 3.0 32 ------- null}
h -t 0.82 -s 0 -d 2 -p cbr -e 210 -c 1 -i 32 -a 1 -x {0.0 3.0 -1 ------- null}
r -t 0.82168 -s 0 -d 2 -p cbr -e 210 -c 1 -i 31 -a 1 -x {0.0 3.0 31 ------- null}
+ -t 0.82168 -s 2 -d 3 -p cbr -e 210 -c 1 -i 31 -a 1 -x {0.0 3.0 31 ------- null}
- -t 0.82168 -s 2 -d 3 -p cbr -e 210 -c 1 -i 31 -a 1 -x {0.0 3.0 31 ------- null}
h -t 0.82168 -s 2 -d 3 -p cbr -e 210 -c 1 -i 31 -a 1 -x {0.0 3.0 -1 ------- null}
r -t 0.82336 -s 2 -d 3 -p cbr -e 210 -c 1 -i 30 -a 1 -x {0.0 3.0 30 ------- null}
+ -t 0.83 -s 0 -d 2 -p cbr -e 210 -c 1 -i 33 -a 1 -x {0.0 3.0 33 ------- null}
- -t 0.83 -s 0 -d 2 -p cbr -e 210 -c 1 -i 33 -a 1 -x {0.0 3.0 33 ------- null}
h -t 0.83 -s 0 -d 2 -p cbr -e 210 -c 1 -i 33 -a 1 -x {0.0 3.0 -1 ------- null}
r -t 0.83168 -s 0 -d 2 -p cbr -e 210 -c 1 -i 32 -a 1 -x {0.0 3.0 32 ------- null}
+ -t 0.83168 -s 2 -d 3 -p cbr -e 210 -c 1 -i 32 -a 1 -x {0.0 3.0 32 ------- null}
- -t 0.83168 -s 2 -d 3 -p cbr -e 210 -c 1 -i 32 -a 1 -x {0.0 3.0 32 ------- null}
h -t 0.83168 -s 2 -d 3 -p cbr -e 210 -c 1 -i 32 -a 1 -x {0.0 3.0 -1 ------- null}
r -t 0.83336 -s 2 -d 3 -p cbr -e 210 -c 1 -i 31 -a 1 -x {0.0 3.0 31 ------- null}
+ -t 0.84 -s 0 -d 2 -p cbr -e 210 -c 1 -i 34 -a 1 -x {0.0 3.0 34 ------- null}
- -t 0.84 -s 0 -d 2 -p cbr -e 210 -c 1 -i 34 -a 1 -x {0.0 3.0 34 ------- null}
h -t 0.84 -s 0 -d 2 -p cbr -e 210 -c 1 -i 34 -a 1 -x {0.0 3.0 -1 ------- null}
r -t 0.84168 -s 0 -d 2 -p cbr -e 210 -c 1 -i 33 -a 1 -x {0.0 3.0 33 ------- null}
+ -t 0.84168 -s 2 -d 3 -p cbr -e 210 -c 1 -i 33 -a 1 -x {0.0 3.0 33 ------- null}
- -t 0.84168 -s 2 -d 3 -p cbr -e 210 -c 1 -i 33 -a 1 -x {0.0 3.0 33 ------- null}
h -t 0.84168 -s 2 -d 3 -p cbr -e 210 -c 1 -i 33 -a 1 -x {0.0 3.0 -1 ------- null}
r -t 0.84336 -s 2 -d 3 -p cbr -e 210 -c 1 -i 32 -a 1 -x {0.0 3.0 32 ------- null}
+ -t 0.85 -s 0 -d 2 -p cbr -e 210 -c 1 -i 35 -a 1 -x {0.0 3.0 35 ------- null}
- -t 0.85 -s 0 -d 2 -p cbr -e 210 -c 1 -i 35 -a 1 -x {0.0 3.0 35 ------- null}
h -t 0.85 -s 0 -d 2 -p cbr -e 210 -c 1 -i 35 -a 1 -x {0.0 3.0 -1 ------- null}
r -t 0.85168 -s 0 -d 2 -p cbr -e 210 -c 1 -i 34 -a 1 -x {0.0 3.0 34 ------- null}
+ -t 0.85168 -s 2 -d 3 -p cbr -e 210 -c 1 -i 34 -a 1 -x {0.0 3.0 34 ------- null}
- -t 0.85168 -s 2 -d 3 -p cbr -e 210 -c 1 -i 34 -a 1 -x {0.0 3.0 34 ------- null}
h -t 0.85168 -s 2 -d 3 -p cbr -e 210 -c 1 -i 34 -a 1 -x {0.0 3.0 -1 ------- null}
r -t 0.85336 -s 2 -d 3 -p cbr -e 210 -c 1 -i 33 -a 1 -x {0.0 3.0 33 ------- null}
+ -t 0.86 -s 0 -d 2 -p cbr -e 210 -c 1 -i 36 -a 1 -x {0.0 3.0 36 ------- null}
- -t 0.86 -s 0 -d 2 -p cbr -e 210 -c 1 -i 36 -a 1 -x {0.0 3.0 36 ------- null}
h -t 0.86 -s 0 -d 2 -p cbr -e 210 -c 1 -i 36 -a 1 -x {0.0 3.0 -1 ------- null}
r -t 0.86168 -s 0 -d 2 -p cbr -e 210 -c 1 -i 35 -a 1 -x {0.0 3.0 35 ------- null}
+ -t 0.86168 -s 2 -d 3 -p cbr -e 210 -c 1 -i 35 -a 1 -x {0.0 3.0 35 ------- null}
- -t 0.86168 -s 2 -d 3 -p cbr -e 210 -c 1 -i 35 -a 1 -x {0.0 3.0 35 ------- null}
h -t 0.86168 -s 2 -d 3 -p cbr -e 210 -c 1 -i 35 -a 1 -x {0.0 3.0 -1 ------- null}
r -t 0.86336 -s 2 -d 3 -p cbr -e 210 -c 1 -i 34 -a 1 -x {0.0 3.0 34 ------- null}
+ -t 0.87 -s 0 -d 2 -p cbr -e 210 -c 1 -i 37 -a 1 -x {0.0 3.0 37 ------- null}
- -t 0.87 -s 0 -d 2 -p cbr -e 210 -c 1 -i 37 -a 1 -x {0.0 3.0 37 ------- null}
h -t 0.87 -s 0 -d 2 -p cbr -e 210 -c 1 -i 37 -a 1 -x {0.0 3.0 -1 ------- null}
r -t 0.87168 -s 0 -d 2 -p cbr -e 210 -c 1 -i 36 -a 1 -x {0.0 3.0 36 ------- null}
+ -t 0.87168 -s 2 -d 3 -p cbr -e 210 -c 1 -i 36 -a 1 -x {0.0 3.0 36 ------- null}
- -t 0.87168 -s 2 -d 3 -p cbr -e 210 -c 1 -i 36 -a 1 -x {0.0 3.0 36 ------- null}
h -t 0.87168 -s 2 -d 3 -p cbr -e 210 -c 1 -i 36 -a 1 -x {0.0 3.0 -1 ------- null}
r -t 0.87336 -s 2 -d 3 -p cbr -e 210 -c 1 -i 35 -a 1 -x {0.0 3.0 35 ------- null}
+ -t 0.88 -s 0 -d 2 -p cbr -e 210 -c 1 -i 38 -a 1 -x {0.0 3.0 38 ------- null}
- -t 0.88 -s 0 -d 2 -p cbr -e 210 -c 1 -i 38 -a 1 -x {0.0 3.0 38 ------- null}
h -t 0.88 -s 0 -d 2 -p cbr -e 210 -c 1 -i 38 -a 1 -x {0.0 3.0 -1 ------- null}
r -t 0.88168 -s 0 -d 2 -p cbr -e 210 -c 1 -i 37 -a 1 -x {0.0 3.0 37 ------- null}
+ -t 0.88168 -s 2 -d 3 -p cbr -e 210 -c 1 -i 37 -a 1 -x {0.0 3.0 37 ------- null}
- -t 0.88168 -s 2 -d 3 -p cbr -e 210 -c 1 -i 37 -a 1 -x {0.0 3.0 37 ------- null}
h -t 0.88168 -s 2 -d 3 -p cbr -e 210 -c 1 -i 37 -a 1 -x {0.0 3.0 -1 ------- null}
r -t 0.88336 -s 2 -d 3 -p cbr -e 210 -c 1 -i 36 -a 1 -x {0.0 3.0 36 ------- null}
+ -t 0.89 -s 0 -d 2 -p cbr -e 210 -c 1 -i 39 -a 1 -x {0.0 3.0 39 ------- null}
- -t 0.89 -s 0 -d 2 -p cbr -e 210 -c 1 -i 39 -a 1 -x {0.0 3.0 39 ------- null}
h -t 0.89 -s 0 -d 2 -p cbr -e 210 -c 1 -i 39 -a 1 -x {0.0 3.0 -1 ------- null}
r -t 0.89168 -s 0 -d 2 -p cbr -e 210 -c 1 -i 38 -a 1 -x {0.0 3.0 38 ------- null}
+ -t 0.89168 -s 2 -d 3 -p cbr -e 210 -c 1 -i 38 -a 1 -x {0.0 3.0 38 ------- null}
- -t 0.89168 -s 2 -d 3 -p cbr -e 210 -c 1 -i 38 -a 1 -x {0.0 3.0 38 ------- null}
h -t 0.89168 -s 2 -d 3 -p cbr -e 210 -c 1 -i 38 -a 1 -x {0.0 3.0 -1 ------- null}
r -t 0.89336 -s 2 -d 3 -p cbr -e 210 -c 1 -i 37 -a 1 -x {0.0 3.0 37 ------- null}
+ -t 0.9 -s 0 -d 2 -p cbr -e 210 -c 1 -i 40 -a 1 -x {0.0 3.0 40 ------- null}
- -t 0.9 -s 0 -d 2 -p cbr -e 210 -c 1 -i 40 -a 1 -x {0.0 3.0 40 ------- null}
h -t 0.9 -s 0 -d 2 -p cbr -e 210 -c 1 -i 40 -a 1 -x {0.0 3.0 -1 ------- null}
r -t 0.90168 -s 0 -d 2 -p cbr -e 210 -c 1 -i 39 -a 1 -x {0.0 3.0 39 ------- null}
+ -t 0.90168 -s 2 -d 3 -p cbr -e 210 -c 1 -i 39 -a 1 -x {0.0 3.0 39 ------- null}
- -t 0.90168 -s 2 -d 3 -p cbr -e 210 -c 1 -i 39 -a 1 -x {0.0 3.0 39 ------- null}
h -t 0.90168 -s 2 -d 3 -p cbr -e 210 -c 1 -i 39 -a 1 -x {0.0 3.0 -1 ------- null}
r -t 0.90336 -s 2 -d 3 -p cbr -e 210 -c 1 -i 38 -a 1 -x {0.0 3.0 38 ------- null}
+ -t 0.91 -s 0 -d 2 -p cbr -e 210 -c 1 -i 41 -a 1 -x {0.0 3.0 41 ------- null}
- -t 0.91 -s 0 -d 2 -p cbr -e 210 -c 1 -i 41 -a 1 -x {0.0 3.0 41 ------- null}
h -t 0.91 -s 0 -d 2 -p cbr -e 210 -c 1 -i 41 -a 1 -x {0.0 3.0 -1 ------- null}
r -t 0.91168 -s 0 -d 2 -p cbr -e 210 -c 1 -i 40 -a 1 -x {0.0 3.0 40 ------- null}
+ -t 0.91168 -s 2 -d 3 -p cbr -e 210 -c 1 -i 40 -a 1 -x {0.0 3.0 40 ------- null}
- -t 0.91168 -s 2 -d 3 -p cbr -e 210 -c 1 -i 40 -a 1 -x {0.0 3.0 40 ------- null}
h -t 0.91168 -s 2 -d 3 -p cbr -e 210 -c 1 -i 40 -a 1 -x {0.0 3.0 -1 ------- null}
r -t 0.91336 -s 2 -d 3 -p cbr -e 210 -c 1 -i 39 -a 1 -x {0.0 3.0 39 ------- null}
+ -t 0.92 -s 0 -d 2 -p cbr -e 210 -c 1 -i 42 -a 1 -x {0.0 3.0 42 ------- null}
- -t 0.92 -s 0 -d 2 -p cbr -e 210 -c 1 -i 42 -a 1 -x {0.0 3.0 42 ------- null}
h -t 0.92 -s 0 -d 2 -p cbr -e 210 -c 1 -i 42 -a 1 -x {0.0 3.0 -1 ------- null}
r -t 0.92168 -s 0 -d 2 -p cbr -e 210 -c 1 -i 41 -a 1 -x {0.0 3.0 41 ------- null}
+ -t 0.92168 -s 2 -d 3 -p cbr -e 210 -c 1 -i 41 -a 1 -x {0.0 3.0 41 ------- null}
- -t 0.92168 -s 2 -d 3 -p cbr -e 210 -c 1 -i 41 -a 1 -x {0.0 3.0 41 ------- null}
h -t 0.92168 -s 2 -d 3 -p cbr -e 210 -c 1 -i 41 -a 1 -x {0.0 3.0 -1 ------- null}
r -t 0.92336 -s 2 -d 3 -p cbr -e 210 -c 1 -i 40 -a 1 -x {0.0 3.0 40 ------- null}
+ -t 0.93 -s 0 -d 2 -p cbr -e 210 -c 1 -i 43 -a 1 -x {0.0 3.0 43 ------- null}
- -t 0.93 -s 0 -d 2 -p cbr -e 210 -c 1 -i 43 -a 1 -x {0.0 3.0 43 ------- null}
h -t 0.93 -s 0 -d 2 -p cbr -e 210 -c 1 -i 43 -a 1 -x {0.0 3.0 -1 ------- null}
r -t 0.93168 -s 0 -d 2 -p cbr -e 210 -c 1 -i 42 -a 1 -x {0.0 3.0 42 ------- null}
+ -t 0.93168 -s 2 -d 3 -p cbr -e 210 -c 1 -i 42 -a 1 -x {0.0 3.0 42 ------- null}
- -t 0.93168 -s 2 -d 3 -p cbr -e 210 -c 1 -i 42 -a 1 -x {0.0 3.0 42 ------- null}
h -t 0.93168 -s 2 -d 3 -p cbr -e 210 -c 1 -i 42 -a 1 -x {0.0 3.0 -1 ------- null}
r -t 0.93336 -s 2 -d 3 -p cbr -e 210 -c 1 -i 41 -a 1 -x {0.0 3.0 41 ------- null}
+ -t 0.94 -s 0 -d 2 -p cbr -e 210 -c 1 -i 44 -a 1 -x {0.0 3.0 44 ------- null}
- -t 0.94 -s 0 -d 2 -p cbr -e 210 -c 1 -i 44 -a 1 -x {0.0 3.0 44 ------- null}
h -t 0.94 -s 0 -d 2 -p cbr -e 210 -c 1 -i 44 -a 1 -x {0.0 3.0 -1 ------- null}
r -t 0.94168 -s 0 -d 2 -p cbr -e 210 -c 1 -i 43 -a 1 -x {0.0 3.0 43 ------- null}
+ -t 0.94168 -s 2 -d 3 -p cbr -e 210 -c 1 -i 43 -a 1 -x {0.0 3.0 43 ------- null}
- -t 0.94168 -s 2 -d 3 -p cbr -e 210 -c 1 -i 43 -a 1 -x {0.0 3.0 43 ------- null}
h -t 0.94168 -s 2 -d 3 -p cbr -e 210 -c 1 -i 43 -a 1 -x {0.0 3.0 -1 ------- null}
r -t 0.94336 -s 2 -d 3 -p cbr -e 210 -c 1 -i 42 -a 1 -x {0.0 3.0 42 ------- null}
+ -t 0.95 -s 0 -d 2 -p cbr -e 210 -c 1 -i 45 -a 1 -x {0.0 3.0 45 ------- null}
- -t 0.95 -s 0 -d 2 -p cbr -e 210 -c 1 -i 45 -a 1 -x {0.0 3.0 45 ------- null}
h -t 0.95 -s 0 -d 2 -p cbr -e 210 -c 1 -i 45 -a 1 -x {0.0 3.0 -1 ------- null}
r -t 0.95168 -s 0 -d 2 -p cbr -e 210 -c 1 -i 44 -a 1 -x {0.0 3.0 44 ------- null}
+ -t 0.95168 -s 2 -d 3 -p cbr -e 210 -c 1 -i 44 -a 1 -x {0.0 3.0 44 ------- null}
- -t 0.95168 -s 2 -d 3 -p cbr -e 210 -c 1 -i 44 -a 1 -x {0.0 3.0 44 ------- null}
h -t 0.95168 -s 2 -d 3 -p cbr -e 210 -c 1 -i 44 -a 1 -x {0.0 3.0 -1 ------- null}
r -t 0.95336 -s 2 -d 3 -p cbr -e 210 -c 1 -i 43 -a 1 -x {0.0 3.0 43 ------- null}
+ -t 0.96 -s 0 -d 2 -p cbr -e 210 -c 1 -i 46 -a 1 -x {0.0 3.0 46 ------- null}
- -t 0.96 -s 0 -d 2 -p cbr -e 210 -c 1 -i 46 -a 1 -x {0.0 3.0 46 ------- null}
h -t 0.96 -s 0 -d 2 -p cbr -e 210 -c 1 -i 46 -a 1 -x {0.0 3.0 -1 ------- null}
r -t 0.96168 -s 0 -d 2 -p cbr -e 210 -c 1 -i 45 -a 1 -x {0.0 3.0 45 ------- null}