V -t * -v 1.0a5 -a 0
A -t * -n 1 -p 0 -o 0x7fffffff -c 30 -a 1
A -t * -h 1 -m 1073741823 -s 0
c -t * -i 1 -n red
c -t * -i 2 -n green
n -t * -a 4 -s 4 -S UP -v circle -c black -i black
n -t * -a 0 -s 0 -S UP -v circle -c black -i black
n -t * -a 1 -s 1 -S UP -v circle -c black -i black
n -t * -a 2 -s 2 -S UP -v circle -c black -i black
n -t * -a 3 -s 3 -S UP -v circle -c black -i black
l -t * -s 0 -d 1 -S UP -r 1000000 -D 0.01 -c black
l -t * -s 0 -d 2 -S UP -r 1000000 -D 0.01 -c black
l -t * -s 1 -d 2 -S UP -r 1000000 -D 0.01 -c black
l -t * -s 1 -d 3 -S UP -r 1000000 -D 0.01 -c black
l -t * -s 2 -d 3 -S UP -r 1000000 -D 0.01 -c black
l -t * -s 2 -d 4 -S UP -r 1000000 -D 0.01 -c black
l -t * -s 3 -d 4 -S UP -r 1000000 -D 0.01 -c black
+ -t 0.000169788487334637 -s 0 -d 1 -p rtProtoDV -e 5 -c 0 -i 0 -a 0 -x {0.2 1.2 -1 ------- null}
- -t 0.000169788487334637 -s 0 -d 1 -p rtProtoDV -e 5 -c 0 -i 0 -a 0 -x {0.2 1.2 -1 ------- null}
h -t 0.000169788487334637 -s 0 -d 1 -p rtProtoDV -e 5 -c 0 -i 0 -a 0 -x {0.2 1.2 -1 ------- null}
+ -t 0.000169788487334637 -s 0 -d 2 -p rtProtoDV -e 5 -c 0 -i 1 -a 0 -x {0.2 2.1 -1 ------- null}
- -t 0.000169788487334637 -s 0 -d 2 -p rtProtoDV -e 5 -c 0 -i 1 -a 0 -x {0.2 2.1 -1 ------- null}
h -t 0.000169788487334637 -s 0 -d 2 -p rtProtoDV -e 5 -c 0 -i 1 -a 0 -x {0.2 2.1 -1 ------- null}
+ -t 0.00710233021858257 -s 2 -d 0 -p rtProtoDV -e 5 -c 0 -i 2 -a 0 -x {2.1 0.2 -1 ------- null}
- -t 0.00710233021858257 -s 2 -d 0 -p rtProtoDV -e 5 -c 0 -i 2 -a 0 -x {2.1 0.2 -1 ------- null}
h -t 0.00710233021858257 -s 2 -d 0 -p rtProtoDV -e 5 -c 0 -i 2 -a 0 -x {2.1 0.2 -1 ------- null}
+ -t 0.00710233021858257 -s 2 -d 1 -p rtProtoDV -e 5 -c 0 -i 3 -a 0 -x {2.1 1.2 -1 ------- null}
- -t 0.00710233021858257 -s 2 -d 1 -p rtProtoDV -e 5 -c 0 -i 3 -a 0 -x {2.1 1.2 -1 ------- null}
h -t 0.00710233021858257 -s 2 -d 1 -p rtProtoDV -e 5 -c 0 -i 3 -a 0 -x {2.1 1.2 -1 ------- null}
+ -t 0.00710233021858257 -s 2 -d 3 -p rtProtoDV -e 5 -c 0 -i 4 -a 0 -x {2.1 3.1 -1 ------- null}
- -t 0.00710233021858257 -s 2 -d 3 -p rtProtoDV -e 5 -c 0 -i 4 -a 0 -x {2.1 3.1 -1 ------- null}
h -t 0.00710233021858257 -s 2 -d 3 -p rtProtoDV -e 5 -c 0 -i 4 -a 0 -x {2.1 3.1 -1 ------- null}
+ -t 0.00710233021858257 -s 2 -d 4 -p rtProtoDV -e 5 -c 0 -i 5 -a 0 -x {2.1 4.2 -1 ------- null}
- -t 0.00710233021858257 -s 2 -d 4 -p rtProtoDV -e 5 -c 0 -i 5 -a 0 -x {2.1 4.2 -1 ------- null}
h -t 0.00710233021858257 -s 2 -d 4 -p rtProtoDV -e 5 -c 0 -i 5 -a 0 -x {2.1 4.2 -1 ------- null}
r -t 0.0102097884873346 -s 0 -d 1 -p rtProtoDV -e 5 -c 0 -i 0 -a 0 -x {0.2 1.2 -1 ------- null}
r -t 0.0102097884873346 -s 0 -d 2 -p rtProtoDV -e 5 -c 0 -i 1 -a 0 -x {0.2 2.1 -1 ------- null}
r -t 0.0171423302185826 -s 2 -d 0 -p rtProtoDV -e 5 -c 0 -i 2 -a 0 -x {2.1 0.2 -1 ------- null}
+ -t 0.0171423302185826 -s 0 -d 1 -p rtProtoDV -e 5 -c 0 -i 6 -a 0 -x {0.2 1.2 -1 ------- null}
- -t 0.0171423302185826 -s 0 -d 1 -p rtProtoDV -e 5 -c 0 -i 6 -a 0 -x {0.2 1.2 -1 ------- null}
h -t 0.0171423302185826 -s 0 -d 1 -p rtProtoDV -e 5 -c 0 -i 6 -a 0 -x {0.2 1.2 -1 ------- null}
+ -t 0.0171423302185826 -s 0 -d 2 -p rtProtoDV -e 5 -c 0 -i 7 -a 0 -x {0.2 2.1 -1 ------- null}
- -t 0.0171423302185826 -s 0 -d 2 -p rtProtoDV -e 5 -c 0 -i 7 -a 0 -x {0.2 2.1 -1 ------- null}
h -t 0.0171423302185826 -s 0 -d 2 -p rtProtoDV -e 5 -c 0 -i 7 -a 0 -x {0.2 2.1 -1 ------- null}
r -t 0.0171423302185826 -s 2 -d 1 -p rtProtoDV -e 5 -c 0 -i 3 -a 0 -x {2.1 1.2 -1 ------- null}
+ -t 0.0171423302185826 -s 1 -d 0 -p rtProtoDV -e 5 -c 0 -i 8 -a 0 -x {1.2 0.2 -1 ------- null}
- -t 0.0171423302185826 -s 1 -d 0 -p rtProtoDV -e 5 -c 0 -i 8 -a 0 -x {1.2 0.2 -1 ------- null}
h -t 0.0171423302185826 -s 1 -d 0 -p rtProtoDV -e 5 -c 0 -i 8 -a 0 -x {1.2 0.2 -1 ------- null}
+ -t 0.0171423302185826 -s 1 -d 2 -p rtProtoDV -e 5 -c 0 -i 9 -a 0 -x {1.2 2.1 -1 ------- null}
- -t 0.0171423302185826 -s 1 -d 2 -p rtProtoDV -e 5 -c 0 -i 9 -a 0 -x {1.2 2.1 -1 ------- null}
h -t 0.0171423302185826 -s 1 -d 2 -p rtProtoDV -e 5 -c 0 -i 9 -a 0 -x {1.2 2.1 -1 ------- null}
+ -t 0.0171423302185826 -s 1 -d 3 -p rtProtoDV -e 5 -c 0 -i 10 -a 0 -x {1.2 3.1 -1 ------- null}
- -t 0.0171423302185826 -s 1 -d 3 -p rtProtoDV -e 5 -c 0 -i 10 -a 0 -x {1.2 3.1 -1 ------- null}
h -t 0.0171423302185826 -s 1 -d 3 -p rtProtoDV -e 5 -c 0 -i 10 -a 0 -x {1.2 3.1 -1 ------- null}
r -t 0.0171423302185826 -s 2 -d 3 -p rtProtoDV -e 5 -c 0 -i 4 -a 0 -x {2.1 3.1 -1 ------- null}
+ -t 0.0171423302185826 -s 3 -d 1 -p rtProtoDV -e 5 -c 0 -i 11 -a 0 -x {3.1 1.2 -1 ------- null}
- -t 0.0171423302185826 -s 3 -d 1 -p rtProtoDV -e 5 -c 0 -i 11 -a 0 -x {3.1 1.2 -1 ------- null}
h -t 0.0171423302185826 -s 3 -d 1 -p rtProtoDV -e 5 -c 0 -i 11 -a 0 -x {3.1 1.2 -1 ------- null}
+ -t 0.0171423302185826 -s 3 -d 2 -p rtProtoDV -e 5 -c 0 -i 12 -a 0 -x {3.1 2.1 -1 ------- null}
- -t 0.0171423302185826 -s 3 -d 2 -p rtProtoDV -e 5 -c 0 -i 12 -a 0 -x {3.1 2.1 -1 ------- null}
h -t 0.0171423302185826 -s 3 -d 2 -p rtProtoDV -e 5 -c 0 -i 12 -a 0 -x {3.1 2.1 -1 ------- null}
+ -t 0.0171423302185826 -s 3 -d 4 -p rtProtoDV -e 5 -c 0 -i 13 -a 0 -x {3.1 4.2 -1 ------- null}
- -t 0.0171423302185826 -s 3 -d 4 -p rtProtoDV -e 5 -c 0 -i 13 -a 0 -x {3.1 4.2 -1 ------- null}
h -t 0.0171423302185826 -s 3 -d 4 -p rtProtoDV -e 5 -c 0 -i 13 -a 0 -x {3.1 4.2 -1 ------- null}
r -t 0.0171423302185826 -s 2 -d 4 -p rtProtoDV -e 5 -c 0 -i 5 -a 0 -x {2.1 4.2 -1 ------- null}
+ -t 0.0171423302185826 -s 4 -d 2 -p rtProtoDV -e 5 -c 0 -i 14 -a 0 -x {4.2 2.1 -1 ------- null}
- -t 0.0171423302185826 -s 4 -d 2 -p rtProtoDV -e 5 -c 0 -i 14 -a 0 -x {4.2 2.1 -1 ------- null}
h -t 0.0171423302185826 -s 4 -d 2 -p rtProtoDV -e 5 -c 0 -i 14 -a 0 -x {4.2 2.1 -1 ------- null}
+ -t 0.0171423302185826 -s 4 -d 3 -p rtProtoDV -e 5 -c 0 -i 15 -a 0 -x {4.2 3.1 -1 ------- null}
- -t 0.0171423302185826 -s 4 -d 3 -p rtProtoDV -e 5 -c 0 -i 15 -a 0 -x {4.2 3.1 -1 ------- null}
h -t 0.0171423302185826 -s 4 -d 3 -p rtProtoDV -e 5 -c 0 -i 15 -a 0 -x {4.2 3.1 -1 ------- null}
r -t 0.0271823302185826 -s 0 -d 1 -p rtProtoDV -e 5 -c 0 -i 6 -a 0 -x {0.2 1.2 -1 ------- null}
r -t 0.0271823302185826 -s 0 -d 2 -p rtProtoDV -e 5 -c 0 -i 7 -a 0 -x {0.2 2.1 -1 ------- null}
r -t 0.0271823302185826 -s 1 -d 0 -p rtProtoDV -e 5 -c 0 -i 8 -a 0 -x {1.2 0.2 -1 ------- null}
r -t 0.0271823302185826 -s 1 -d 2 -p rtProtoDV -e 5 -c 0 -i 9 -a 0 -x {1.2 2.1 -1 ------- null}
r -t 0.0271823302185826 -s 1 -d 3 -p rtProtoDV -e 5 -c 0 -i 10 -a 0 -x {1.2 3.1 -1 ------- null}
r -t 0.0271823302185826 -s 3 -d 1 -p rtProtoDV -e 5 -c 0 -i 11 -a 0 -x {3.1 1.2 -1 ------- null}
r -t 0.0271823302185826 -s 3 -d 2 -p rtProtoDV -e 5 -c 0 -i 12 -a 0 -x {3.1 2.1 -1 ------- null}
r -t 0.0271823302185826 -s 3 -d 4 -p rtProtoDV -e 5 -c 0 -i 13 -a 0 -x {3.1 4.2 -1 ------- null}
r -t 0.0271823302185826 -s 4 -d 2 -p rtProtoDV -e 5 -c 0 -i 14 -a 0 -x {4.2 2.1 -1 ------- null}
r -t 0.0271823302185826 -s 4 -d 3 -p rtProtoDV -e 5 -c 0 -i 15 -a 0 -x {4.2 3.1 -1 ------- null}
+ -t 0.04406133552271 -s 3 -d 1 -p rtProtoDV -e 5 -c 0 -i 16 -a 0 -x {3.1 1.2 -1 ------- null}
- -t 0.04406133552271 -s 3 -d 1 -p rtProtoDV -e 5 -c 0 -i 16 -a 0 -x {3.1 1.2 -1 ------- null}
h -t 0.04406133552271 -s 3 -d 1 -p rtProtoDV -e 5 -c 0 -i 16 -a 0 -x {3.1 1.2 -1 ------- null}
+ -t 0.04406133552271 -s 3 -d 2 -p rtProtoDV -e 5 -c 0 -i 17 -a 0 -x {3.1 2.1 -1 ------- null}
- -t 0.04406133552271 -s 3 -d 2 -p rtProtoDV -e 5 -c 0 -i 17 -a 0 -x {3.1 2.1 -1 ------- null}
h -t 0.04406133552271 -s 3 -d 2 -p rtProtoDV -e 5 -c 0 -i 17 -a 0 -x {3.1 2.1 -1 ------- null}
+ -t 0.04406133552271 -s 3 -d 4 -p rtProtoDV -e 5 -c 0 -i 18 -a 0 -x {3.1 4.2 -1 ------- null}
- -t 0.04406133552271 -s 3 -d 4 -p rtProtoDV -e 5 -c 0 -i 18 -a 0 -x {3.1 4.2 -1 ------- null}
h -t 0.04406133552271 -s 3 -d 4 -p rtProtoDV -e 5 -c 0 -i 18 -a 0 -x {3.1 4.2 -1 ------- null}
r -t 0.05410133552271 -s 3 -d 1 -p rtProtoDV -e 5 -c 0 -i 16 -a 0 -x {3.1 1.2 -1 ------- null}
r -t 0.05410133552271 -s 3 -d 2 -p rtProtoDV -e 5 -c 0 -i 17 -a 0 -x {3.1 2.1 -1 ------- null}
r -t 0.05410133552271 -s 3 -d 4 -p rtProtoDV -e 5 -c 0 -i 18 -a 0 -x {3.1 4.2 -1 ------- null}
+ -t 0.22058669092161 -s 4 -d 2 -p rtProtoDV -e 5 -c 0 -i 19 -a 0 -x {4.2 2.1 -1 ------- null}
- -t 0.22058669092161 -s 4 -d 2 -p rtProtoDV -e 5 -c 0 -i 19 -a 0 -x {4.2 2.1 -1 ------- null}
h -t 0.22058669092161 -s 4 -d 2 -p rtProtoDV -e 5 -c 0 -i 19 -a 0 -x {4.2 2.1 -1 ------- null}
+ -t 0.22058669092161 -s 4 -d 3 -p rtProtoDV -e 5 -c 0 -i 20 -a 0 -x {4.2 3.1 -1 ------- null}
- -t 0.22058669092161 -s 4 -d 3 -p rtProtoDV -e 5 -c 0 -i 20 -a 0 -x {4.2 3.1 -1 ------- null}
h -t 0.22058669092161 -s 4 -d 3 -p rtProtoDV -e 5 -c 0 -i 20 -a 0 -x {4.2 3.1 -1 ------- null}
r -t 0.23062669092161 -s 4 -d 2 -p rtProtoDV -e 5 -c 0 -i 19 -a 0 -x {4.2 2.1 -1 ------- null}
r -t 0.23062669092161 -s 4 -d 3 -p rtProtoDV -e 5 -c 0 -i 20 -a 0 -x {4.2 3.1 -1 ------- null}
+ -t 0.277940357931862 -s 1 -d 0 -p rtProtoDV -e 5 -c 0 -i 21 -a 0 -x {1.2 0.2 -1 ------- null}
- -t 0.277940357931862 -s 1 -d 0 -p rtProtoDV -e 5 -c 0 -i 21 -a 0 -x {1.2 0.2 -1 ------- null}
h -t 0.277940357931862 -s 1 -d 0 -p rtProtoDV -e 5 -c 0 -i 21 -a 0 -x {1.2 0.2 -1 ------- null}
+ -t 0.277940357931862 -s 1 -d 2 -p rtProtoDV -e 5 -c 0 -i 22 -a 0 -x {1.2 2.1 -1 ------- null}
- -t 0.277940357931862 -s 1 -d 2 -p rtProtoDV -e 5 -c 0 -i 22 -a 0 -x {1.2 2.1 -1 ------- null}
h -t 0.277940357931862 -s 1 -d 2 -p rtProtoDV -e 5 -c 0 -i 22 -a 0 -x {1.2 2.1 -1 ------- null}
+ -t 0.277940357931862 -s 1 -d 3 -p rtProtoDV -e 5 -c 0 -i 23 -a 0 -x {1.2 3.1 -1 ------- null}
- -t 0.277940357931862 -s 1 -d 3 -p rtProtoDV -e 5 -c 0 -i 23 -a 0 -x {1.2 3.1 -1 ------- null}
h -t 0.277940357931862 -s 1 -d 3 -p rtProtoDV -e 5 -c 0 -i 23 -a 0 -x {1.2 3.1 -1 ------- null}
r -t 0.287980357931862 -s 1 -d 0 -p rtProtoDV -e 5 -c 0 -i 21 -a 0 -x {1.2 0.2 -1 ------- null}
r -t 0.287980357931862 -s 1 -d 2 -p rtProtoDV -e 5 -c 0 -i 22 -a 0 -x {1.2 2.1 -1 ------- null}
r -t 0.287980357931862 -s 1 -d 3 -p rtProtoDV -e 5 -c 0 -i 23 -a 0 -x {1.2 3.1 -1 ------- null}
+ -t 0.5 -s 0 -d 2 -p cbr -e 500 -c 1 -i 24 -a 1 -x {0.0 4.0 0 ------- null}
- -t 0.5 -s 0 -d 2 -p cbr -e 500 -c 1 -i 24 -a 1 -x {0.0 4.0 0 ------- null}
h -t 0.5 -s 0 -d 2 -p cbr -e 500 -c 1 -i 24 -a 1 -x {0.0 4.0 -1 ------- null}
+ -t 0.51 -s 0 -d 2 -p cbr -e 500 -c 1 -i 25 -a 1 -x {0.0 4.0 1 ------- null}
- -t 0.51 -s 0 -d 2 -p cbr -e 500 -c 1 -i 25 -a 1 -x {0.0 4.0 1 ------- null}
h -t 0.51 -s 0 -d 2 -p cbr -e 500 -c 1 -i 25 -a 1 -x {0.0 4.0 -1 ------- null}
r -t 0.514 -s 0 -d 2 -p cbr -e 500 -c 1 -i 24 -a 1 -x {0.0 4.0 0 ------- null}
+ -t 0.514 -s 2 -d 4 -p cbr -e 500 -c 1 -i 24 -a 1 -x {0.0 4.0 0 ------- null}
- -t 0.514 -s 2 -d 4 -p cbr -e 500 -c 1 -i 24 -a 1 -x {0.0 4.0 0 ------- null}
h -t 0.514 -s 2 -d 4 -p cbr -e 500 -c 1 -i 24 -a 1 -x {0.0 4.0 -1 ------- null}
+ -t 0.52 -s 0 -d 2 -p cbr -e 500 -c 1 -i 26 -a 1 -x {0.0 4.0 2 ------- null}
- -t 0.52 -s 0 -d 2 -p cbr -e 500 -c 1 -i 26 -a 1 -x {0.0 4.0 2 ------- null}
h -t 0.52 -s 0 -d 2 -p cbr -e 500 -c 1 -i 26 -a 1 -x {0.0 4.0 -1 ------- null}
r -t 0.524 -s 0 -d 2 -p cbr -e 500 -c 1 -i 25 -a 1 -x {0.0 4.0 1 ------- null}
+ -t 0.524 -s 2 -d 4 -p cbr -e 500 -c 1 -i 25 -a 1 -x {0.0 4.0 1 ------- null}
- -t 0.524 -s 2 -d 4 -p cbr -e 500 -c 1 -i 25 -a 1 -x {0.0 4.0 1 ------- null}
h -t 0.524 -s 2 -d 4 -p cbr -e 500 -c 1 -i 25 -a 1 -x {0.0 4.0 -1 ------- null}
r -t 0.528 -s 2 -d 4 -p cbr -e 500 -c 1 -i 24 -a 1 -x {0.0 4.0 0 ------- null}
+ -t 0.53 -s 0 -d 2 -p cbr -e 500 -c 1 -i 27 -a 1 -x {0.0 4.0 3 ------- null}
- -t 0.53 -s 0 -d 2 -p cbr -e 500 -c 1 -i 27 -a 1 -x {0.0 4.0 3 ------- null}
h -t 0.53 -s 0 -d 2 -p cbr -e 500 -c 1 -i 27 -a 1 -x {0.0 4.0 -1 ------- null}
r -t 0.534 -s 0 -d 2 -p cbr -e 500 -c 1 -i 26 -a 1 -x {0.0 4.0 2 ------- null}
+ -t 0.534 -s 2 -d 4 -p cbr -e 500 -c 1 -i 26 -a 1 -x {0.0 4.0 2 ------- null}
- -t 0.534 -s 2 -d 4 -p cbr -e 500 -c 1 -i 26 -a 1 -x {0.0 4.0 2 ------- null}
h -t 0.534 -s 2 -d 4 -p cbr -e 500 -c 1 -i 26 -a 1 -x {0.0 4.0 -1 ------- null}
r -t 0.538 -s 2 -d 4 -p cbr -e 500 -c 1 -i 25 -a 1 -x {0.0 4.0 1 ------- null}
+ -t 0.54 -s 0 -d 2 -p cbr -e 500 -c 1 -i 28 -a 1 -x {0.0 4.0 4 ------- null}
- -t 0.54 -s 0 -d 2 -p cbr -e 500 -c 1 -i 28 -a 1 -x {0.0 4.0 4 ------- null}
h -t 0.54 -s 0 -d 2 -p cbr -e 500 -c 1 -i 28 -a 1 -x {0.0 4.0 -1 ------- null}
r -t 0.544 -s 0 -d 2 -p cbr -e 500 -c 1 -i 27 -a 1 -x {0.0 4.0 3 ------- null}
+ -t 0.544 -s 2 -d 4 -p cbr -e 500 -c 1 -i 27 -a 1 -x {0.0 4.0 3 ------- null}
- -t 0.544 -s 2 -d 4 -p cbr -e 500 -c 1 -i 27 -a 1 -x {0.0 4.0 3 ------- null}
h -t 0.544 -s 2 -d 4 -p cbr -e 500 -c 1 -i 27 -a 1 -x {0.0 4.0 -1 ------- null}
r -t 0.548 -s 2 -d 4 -p cbr -e 500 -c 1 -i 26 -a 1 -x {0.0 4.0 2 ------- null}
+ -t 0.55 -s 0 -d 2 -p cbr -e 500 -c 1 -i 29 -a 1 -x {0.0 4.0 5 ------- null}
- -t 0.55 -s 0 -d 2 -p cbr -e 500 -c 1 -i 29 -a 1 -x {0.0 4.0 5 ------- null}
h -t 0.55 -s 0 -d 2 -p cbr -e 500 -c 1 -i 29 -a 1 -x {0.0 4.0 -1 ------- null}
r -t 0.554 -s 0 -d 2 -p cbr -e 500 -c 1 -i 28 -a 1 -x {0.0 4.0 4 ------- null}
+ -t 0.554 -s 2 -d 4 -p cbr -e 500 -c 1 -i 28 -a 1 -x {0.0 4.0 4 ------- null}
- -t 0.554 -s 2 -d 4 -p cbr -e 500 -c 1 -i 28 -a 1 -x {0.0 4.0 4 ------- null}
h -t 0.554 -s 2 -d 4 -p cbr -e 500 -c 1 -i 28 -a 1 -x {0.0 4.0 -1 ------- null}
r -t 0.558 -s 2 -d 4 -p cbr -e 500 -c 1 -i 27 -a 1 -x {0.0 4.0 3 ------- null}
+ -t 0.56 -s 0 -d 2 -p cbr -e 500 -c 1 -i 30 -a 1 -x {0.0 4.0 6 ------- null}
- -t 0.56 -s 0 -d 2 -p cbr -e 500 -c 1 -i 30 -a 1 -x {0.0 4.0 6 ------- null}
h -t 0.56 -s 0 -d 2 -p cbr -e 500 -c 1 -i 30 -a 1 -x {0.0 4.0 -1 ------- null}
r -t 0.564 -s 0 -d 2 -p cbr -e 500 -c 1 -i 29 -a 1 -x {0.0 4.0 5 ------- null}
+ -t 0.564 -s 2 -d 4 -p cbr -e 500 -c 1 -i 29 -a 1 -x {0.0 4.0 5 ------- null}
- -t 0.564 -s 2 -d 4 -p cbr -e 500 -c 1 -i 29 -a 1 -x {0.0 4.0 5 ------- null}
h -t 0.564 -s 2 -d 4 -p cbr -e 500 -c 1 -i 29 -a 1 -x {0.0 4.0 -1 ------- null}
r -t 0.568 -s 2 -d 4 -p cbr -e 500 -c 1 -i 28 -a 1 -x {0.0 4.0 4 ------- null}
+ -t 0.57 -s 0 -d 2 -p cbr -e 500 -c 1 -i 31 -a 1 -x {0.0 4.0 7 ------- null}
- -t 0.57 -s 0 -d 2 -p cbr -e 500 -c 1 -i 31 -a 1 -x {0.0 4.0 7 ------- null}
h -t 0.57 -s 0 -d 2 -p cbr -e 500 -c 1 -i 31 -a 1 -x {0.0 4.0 -1 ------- null}
r -t 0.574 -s 0 -d 2 -p cbr -e 500 -c 1 -i 30 -a 1 -x {0.0 4.0 6 ------- null}
+ -t 0.574 -s 2 -d 4 -p cbr -e 500 -c 1 -i 30 -a 1 -x {0.0 4.0 6 ------- null}
- -t 0.574 -s 2 -d 4 -p cbr -e 500 -c 1 -i 30 -a 1 -x {0.0 4.0 6 ------- null}
h -t 0.574 -s 2 -d 4 -p cbr -e 500 -c 1 -i 30 -a 1 -x {0.0 4.0 -1 ------- null}
r -t 0.578 -s 2 -d 4 -p cbr -e 500 -c 1 -i 29 -a 1 -x {0.0 4.0 5 ------- null}
+ -t 0.58 -s 0 -d 2 -p cbr -e 500 -c 1 -i 32 -a 1 -x {0.0 4.0 8 ------- null}
- -t 0.58 -s 0 -d 2 -p cbr -e 500 -c 1 -i 32 -a 1 -x {0.0 4.0 8 ------- null}
h -t 0.58 -s 0 -d 2 -p cbr -e 500 -c 1 -i 32 -a 1 -x {0.0 4.0 -1 ------- null}
r -t 0.584 -s 0 -d 2 -p cbr -e 500 -c 1 -i 31 -a 1 -x {0.0 4.0 7 ------- null}
+ -t 0.584 -s 2 -d 4 -p cbr -e 500 -c 1 -i 31 -a 1 -x {0.0 4.0 7 ------- null}
- -t 0.584 -s 2 -d 4 -p cbr -e 500 -c 1 -i 31 -a 1 -x {0.0 4.0 7 ------- null}
h -t 0.584 -s 2 -d 4 -p cbr -e 500 -c 1 -i 31 -a 1 -x {0.0 4.0 -1 ------- null}
r -t 0.588 -s 2 -d 4 -p cbr -e 500 -c 1 -i 30 -a 1 -x {0.0 4.0 6 ------- null}
+ -t 0.59 -s 0 -d 2 -p cbr -e 500 -c 1 -i 33 -a 1 -x {0.0 4.0 9 ------- null}
- -t 0.59 -s 0 -d 2 -p cbr -e 500 -c 1 -i 33 -a 1 -x {0.0 4.0 9 ------- null}
h -t 0.59 -s 0 -d 2 -p cbr -e 500 -c 1 -i 33 -a 1 -x {0.0 4.0 -1 ------- null}
r -t 0.594 -s 0 -d 2 -p cbr -e 500 -c 1 -i 32 -a 1 -x {0.0 4.0 8 ------- null}
+ -t 0.594 -s 2 -d 4 -p cbr -e 500 -c 1 -i 32 -a 1 -x {0.0 4.0 8 ------- null}
- -t 0.594 -s 2 -d 4 -p cbr -e 500 -c 1 -i 32 -a 1 -x {0.0 4.0 8 ------- null}
h -t 0.594 -s 2 -d 4 -p cbr -e 500 -c 1 -i 32 -a 1 -x {0.0 4.0 -1 ------- null}
r -t 0.598 -s 2 -d 4 -p cbr -e 500 -c 1 -i 31 -a 1 -x {0.0 4.0 7 ------- null}
+ -t 0.6 -s 0 -d 2 -p cbr -e 500 -c 1 -i 34 -a 1 -x {0.0 4.0 10 ------- null}
- -t 0.6 -s 0 -d 2 -p cbr -e 500 -c 1 -i 34 -a 1 -x {0.0 4.0 10 ------- null}
h -t 0.6 -s 0 -d 2 -p cbr -e 500 -c 1 -i 34 -a 1 -x {0.0 4.0 -1 ------- null}
r -t 0.604 -s 0 -d 2 -p cbr -e 500 -c 1 -i 33 -a 1 -x {0.0 4.0 9 ------- null}
+ -t 0.604 -s 2 -d 4 -p cbr -e 500 -c 1 -i 33 -a 1 -x {0.0 4.0 9 ------- null}
- -t 0.604 -s 2 -d 4 -p cbr -e 500 -c 1 -i 33 -a 1 -x {0.0 4.0 9 ------- null}
h -t 0.604 -s 2 -d 4 -p cbr -e 500 -c 1 -i 33 -a 1 -x {0.0 4.0 -1 ------- null}
r -t 0.608 -s 2 -d 4 -p cbr -e 500 -c 1 -i 32 -a 1 -x {0.0 4.0 8 ------- null}
+ -t 0.61 -s 0 -d 2 -p cbr -e 500 -c 1 -i 35 -a 1 -x {0.0 4.0 11 ------- null}
- -t 0.61 -s 0 -d 2 -p cbr -e 500 -c 1 -i 35 -a 1 -x {0.0 4.0 11 ------- null}
h -t 0.61 -s 0 -d 2 -p cbr -e 500 -c 1 -i 35 -a 1 -x {0.0 4.0 -1 ------- null}
r -t 0.614 -s 0 -d 2 -p cbr -e 500 -c 1 -i 34 -a 1 -x {0.0 4.0 10 ------- null}
+ -t 0.614 -s 2 -d 4 -p cbr -e 500 -c 1 -i 34 -a 1 -x {0.0 4.0 10 ------- null}
- -t 0.614 -s 2 -d 4 -p cbr -e 500 -c 1 -i 34 -a 1 -x {0.0 4.0 10 ------- null}
h -t 0.614 -s 2 -d 4 -p cbr -e 500 -c 1 -i 34 -a 1 -x {0.0 4.0 -1 ------- null}
r -t 0.618 -s 2 -d 4 -p cbr -e 500 -c 1 -i 33 -a 1 -x {0.0 4.0 9 ------- null}
+ -t 0.62 -s 0 -d 2 -p cbr -e 500 -c 1 -i 36 -a 1 -x {0.0 4.0 12 ------- null}
- -t 0.62 -s 0 -d 2 -p cbr -e 500 -c 1 -i 36 -a 1 -x {0.0 4.0 12 ------- null}
h -t 0.62 -s 0 -d 2 -p cbr -e 500 -c 1 -i 36 -a 1 -x {0.0 4.0 -1 ------- null}
r -t 0.624 -s 0 -d 2 -p cbr -e 500 -c 1 -i 35 -a 1 -x {0.0 4.0 11 ------- null}
+ -t 0.624 -s 2 -d 4 -p cbr -e 500 -c 1 -i 35 -a 1 -x {0.0 4.0 11 ------- null}
- -t 0.624 -s 2 -d 4 -p cbr -e 500 -c 1 -i 35 -a 1 -x {0.0 4.0 11 ------- null}
h -t 0.624 -s 2 -d 4 -p cbr -e 500 -c 1 -i 35 -a 1 -x {0.0 4.0 -1 ------- null}
r -t 0.628 -s 2 -d 4 -p cbr -e 500 -c 1 -i 34 -a 1 -x {0.0 4.0 10 ------- null}
+ -t 0.63 -s 0 -d 2 -p cbr -e 500 -c 1 -i 37 -a 1 -x {0.0 4.0 13 ------- null}
- -t 0.63 -s 0 -d 2 -p cbr -e 500 -c 1 -i 37 -a 1 -x {0.0 4.0 13 ------- null}
h -t 0.63 -s 0 -d 2 -p cbr -e 500 -c 1 -i 37 -a 1 -x {0.0 4.0 -1 ------- null}
r -t 0.634 -s 0 -d 2 -p cbr -e 500 -c 1 -i 36 -a 1 -x {0.0 4.0 12 ------- null}
+ -t 0.634 -s 2 -d 4 -p cbr -e 500 -c 1 -i 36 -a 1 -x {0.0 4.0 12 ------- null}
- -t 0.634 -s 2 -d 4 -p cbr -e 500 -c 1 -i 36 -a 1 -x {0.0 4.0 12 ------- null}
h -t 0.634 -s 2 -d 4 -p cbr -e 500 -c 1 -i 36 -a 1 -x {0.0 4.0 -1 ------- null}
r -t 0.638 -s 2 -d 4 -p cbr -e 500 -c 1 -i 35 -a 1 -x {0.0 4.0 11 ------- null}
+ -t 0.64 -s 0 -d 2 -p cbr -e 500 -c 1 -i 38 -a 1 -x {0.0 4.0 14 ------- null}
- -t 0.64 -s 0 -d 2 -p cbr -e 500 -c 1 -i 38 -a 1 -x {0.0 4.0 14 ------- null}
h -t 0.64 -s 0 -d 2 -p cbr -e 500 -c 1 -i 38 -a 1 -x {0.0 4.0 -1 ------- null}
r -t 0.644 -s 0 -d 2 -p cbr -e 500 -c 1 -i 37 -a 1 -x {0.0 4.0 13 ------- null}
+ -t 0.644 -s 2 -d 4 -p cbr -e 500 -c 1 -i 37 -a 1 -x {0.0 4.0 13 ------- null}
- -t 0.644 -s 2 -d 4 -p cbr -e 500 -c 1 -i 37 -a 1 -x {0.0 4.0 13 ------- null}
h -t 0.644 -s 2 -d 4 -p cbr -e 500 -c 1 -i 37 -a 1 -x {0.0 4.0 -1 ------- null}
r -t 0.648 -s 2 -d 4 -p cbr -e 500 -c 1 -i 36 -a 1 -x {0.0 4.0 12 ------- null}
+ -t 0.65 -s 0 -d 2 -p cbr -e 500 -c 1 -i 39 -a 1 -x {0.0 4.0 15 ------- null}
- -t 0.65 -s 0 -d 2 -p cbr -e 500 -c 1 -i 39 -a 1 -x {0.0 4.0 15 ------- null}
h -t 0.65 -s 0 -d 2 -p cbr -e 500 -c 1 -i 39 -a 1 -x {0.0 4.0 -1 ------- null}
r -t 0.654 -s 0 -d 2 -p cbr -e 500 -c 1 -i 38 -a 1 -x {0.0 4.0 14 ------- null}
+ -t 0.654 -s 2 -d 4 -p cbr -e 500 -c 1 -i 38 -a 1 -x {0.0 4.0 14 ------- null}
- -t 0.654 -s 2 -d 4 -p cbr -e 500 -c 1 -i 38 -a 1 -x {0.0 4.0 14 ------- null}
h -t 0.654 -s 2 -d 4 -p cbr -e 500 -c 1 -i 38 -a 1 -x {0.0 4.0 -1 ------- null}
r -t 0.658 -s 2 -d 4 -p cbr -e 500 -c 1 -i 37 -a 1 -x {0.0 4.0 13 ------- null}
+ -t 0.66 -s 0 -d 2 -p cbr -e 500 -c 1 -i 40 -a 1 -x {0.0 4.0 16 ------- null}
- -t 0.66 -s 0 -d 2 -p cbr -e 500 -c 1 -i 40 -a 1 -x {0.0 4.0 16 ------- null}
h -t 0.66 -s 0 -d 2 -p cbr -e 500 -c 1 -i 40 -a 1 -x {0.0 4.0 -1 ------- null}
r -t 0.664 -s 0 -d 2 -p cbr -e 500 -c 1 -i 39 -a 1 -x {0.0 4.0 15 ------- null}
+ -t 0.664 -s 2 -d 4 -p cbr -e 500 -c 1 -i 39 -a 1 -x {0.0 4.0 15 ------- null}
- -t 0.664 -s 2 -d 4 -p cbr -e 500 -c 1 -i 39 -a 1 -x {0.0 4.0 15 ------- null}
h -t 0.664 -s 2 -d 4 -p cbr -e 500 -c 1 -i 39 -a 1 -x {0.0 4.0 -1 ------- null}
r -t 0.668 -s 2 -d 4 -p cbr -e 500 -c 1 -i 38 -a 1 -x {0.0 4.0 14 ------- null}
+ -t 0.67 -s 0 -d 2 -p cbr -e 500 -c 1 -i 41 -a 1 -x {0.0 4.0 17 ------- null}
- -t 0.67 -s 0 -d 2 -p cbr -e 500 -c 1 -i 41 -a 1 -x {0.0 4.0 17 ------- null}
h -t 0.67 -s 0 -d 2 -p cbr -e 500 -c 1 -i 41 -a 1 -x {0.0 4.0 -1 ------- null}
r -t 0.674 -s 0 -d 2 -p cbr -e 500 -c 1 -i 40 -a 1 -x {0.0 4.0 16 ------- null}
+ -t 0.674 -s 2 -d 4 -p cbr -e 500 -c 1 -i 40 -a 1 -x {0.0 4.0 16 ------- null}
- -t 0.674 -s 2 -d 4 -p cbr -e 500 -c 1 -i 40 -a 1 -x {0.0 4.0 16 ------- null}
h -t 0.674 -s 2 -d 4 -p cbr -e 500 -c 1 -i 40 -a 1 -x {0.0 4.0 -1 ------- null}
r -t 0.678 -s 2 -d 4 -p cbr -e 500 -c 1 -i 39 -a 1 -x {0.0 4.0 15 ------- null}
+ -t 0.68 -s 0 -d 2 -p cbr -e 500 -c 1 -i 42 -a 1 -x {0.0 4.0 18 ------- null}
- -t 0.68 -s 0 -d 2 -p cbr -e 500 -c 1 -i 42 -a 1 -x {0.0 4.0 18 ------- null}
h -t 0.68 -s 0 -d 2 -p cbr -e 500 -c 1 -i 42 -a 1 -x {0.0 4.0 -1 ------- null}
r -t 0.684 -s 0 -d 2 -p cbr -e 500 -c 1 -i 41 -a 1 -x {0.0 4.0 17 ------- null}
+ -t 0.684 -s 2 -d 4 -p cbr -e 500 -c 1 -i 41 -a 1 -x {0.0 4.0 17 ------- null}
- -t 0.684 -s 2 -d 4 -p cbr -e 500 -c 1 -i 41 -a 1 -x {0.0 4.0 17 ------- null}
h -t 0.684 -s 2 -d 4 -p cbr -e 500 -c 1 -i 41 -a 1 -x {0.0 4.0 -1 ------- null}
r -t 0.688 -s 2 -d 4 -p cbr -e 500 -c 1 -i 40 -a 1 -x {0.0 4.0 16 ------- null}
+ -t 0.69 -s 0 -d 2 -p cbr -e 500 -c 1 -i 43 -a 1 -x {0.0 4.0 19 ------- null}
- -t 0.69 -s 0 -d 2 -p cbr -e 500 -c 1 -i 43 -a 1 -x {0.0 4.0 19 ------- null}
h -t 0.69 -s 0 -d 2 -p cbr -e 500 -c 1 -i 43 -a 1 -x {0.0 4.0 -1 ------- null}
r -t 0.694 -s 0 -d 2 -p cbr -e 500 -c 1 -i 42 -a 1 -x {0.0 4.0 18 ------- null}
+ -t 0.694 -s 2 -d 4 -p cbr -e 500 -c 1 -i 42 -a 1 -x {0.0 4.0 18 ------- null}
- -t 0.694 -s 2 -d 4 -p cbr -e 500 -c 1 -i 42 -a 1 -x {0.0 4.0 18 ------- null}
h -t 0.694 -s 2 -d 4 -p cbr -e 500 -c 1 -i 42 -a 1 -x {0.0 4.0 -1 ------- null}
r -t 0.698 -s 2 -d 4 -p cbr -e 500 -c 1 -i 41 -a 1 -x {0.0 4.0 17 ------- null}
+ -t 0.7 -s 0 -d 2 -p cbr -e 500 -c 1 -i 44 -a 1 -x {0.0 4.0 20 ------- null}
- -t 0.7 -s 0 -d 2 -p cbr -e 500 -c 1 -i 44 -a 1 -x {0.0 4.0 20 ------- null}
h -t 0.7 -s 0 -d 2 -p cbr -e 500 -c 1 -i 44 -a 1 -x {0.0 4.0 -1 ------- null}
r -t 0.704 -s 0 -d 2 -p cbr -e 500 -c 1 -i 43 -a 1 -x {0.0 4.0 19 ------- null}
+ -t 0.704 -s 2 -d 4 -p cbr -e 500 -c 1 -i 43 -a 1 -x {0.0 4.0 19 ------- null}
- -t 0.704 -s 2 -d 4 -p cbr -e 500 -c 1 -i 43 -a 1 -x {0.0 4.0 19 ------- null}
h -t 0.704 -s 2 -d 4 -p cbr -e 500 -c 1 -i 43 -a 1 -x {0.0 4.0 -1 ------- null}
r -t 0.708 -s 2 -d 4 -p cbr -e 500 -c 1 -i 42 -a 1 -x {0.0 4.0 18 ------- null}
+ -t 0.71 -s 0 -d 2 -p cbr -e 500 -c 1 -i 45 -a 1 -x {0.0 4.0 21 ------- null}
- -t 0.71 -s 0 -d 2 -p cbr -e 500 -c 1 -i 45 -a 1 -x {0.0 4.0 21 ------- null}
h -t 0.71 -s 0 -d 2 -p cbr -e 500 -c 1 -i 45 -a 1 -x {0.0 4.0 -1 ------- null}
r -t 0.714 -s 0 -d 2 -p cbr -e 500 -c 1 -i 44 -a 1 -x {0.0 4.0 20 ------- null}
+ -t 0.714 -s 2 -d 4 -p cbr -e 500 -c 1 -i 44 -a 1 -x {0.0 4.0 20 ------- null}
- -t 0.714 -s 2 -d 4 -p cbr -e 500 -c 1 -i 44 -a 1 -x {0.0 4.0 20 ------- null}
h -t 0.714 -s 2 -d 4 -p cbr -e 500 -c 1 -i 44 -a 1 -x {0.0 4.0 -1 ------- null}
r -t 0.718 -s 2 -d 4 -p cbr -e 500 -c 1 -i 43 -a 1 -x {0.0 4.0 19 ------- null}
+ -t 0.72 -s 0 -d 2 -p cbr -e 500 -c 1 -i 46 -a 1 -x {0.0 4.0 22 ------- null}
- -t 0.72 -s 0 -d 2 -p cbr -e 500 -c 1 -i 46 -a 1 -x {0.0 4.0 22 ------- null}
h -t 0.72 -s 0 -d 2 -p cbr -e 500 -c 1 -i 46 -a 1 -x {0.0 4.0 -1 ------- null}
r -t 0.724 -s 0 -d 2 -p cbr -e 500 -c 1 -i 45 -a 1 -x {0.0 4.0 21 ------- null}
+ -t 0.724 -s 2 -d 4 -p cbr -e 500 -c 1 -i 45 -a 1 -x {0.0 4.0 21 ------- null}
- -t 0.724 -s 2 -d 4 -p cbr -e 500 -c 1 -i 45 -a 1 -x {0.0 4.0 21 ------- null}
h -t 0.724 -s 2 -d 4 -p cbr -e 500 -c 1 -i 45 -a 1 -x {0.0 4.0 -1 ------- null}
r -t 0.728 -s 2 -d 4 -p cbr -e 500 -c 1 -i 44 -a 1 -x {0.0 4.0 20 ------- null}
+ -t 0.73 -s 0 -d 2 -p cbr -e 500 -c 1 -i 47 -a 1 -x {0.0 4.0 23 ------- null}
- -t 0.73 -s 0 -d 2 -p cbr -e 500 -c 1 -i 47 -a 1 -x {0.0 4.0 23 ------- null}
h -t 0.73 -s 0 -d 2 -p cbr -e 500 -c 1 -i 47 -a 1 -x {0.0 4.0 -1 ------- null}
r -t 0.734 -s 0 -d 2 -p cbr -e 500 -c 1 -i 46 -a 1 -x {0.0 4.0 22 ------- null}
+ -t 0.734 -s 2 -d 4 -p cbr -e 500 -c 1 -i 46 -a 1 -x {0.0 4.0 22 ------- null}
- -t 0.734 -s 2 -d 4 -p cbr -e 500 -c 1 -i 46 -a 1 -x {0.0 4.0 22 ------- null}
h -t 0.734 -s 2 -d 4 -p cbr -e 500 -c 1 -i 46 -a 1 -x {0.0 4.0 -1 ------- null}
r -t 0.738 -s 2 -d 4 -p cbr -e 500 -c 1 -i 45 -a 1 -x {0.0 4.0 21 ------- null}
+ -t 0.74 -s 0 -d 2 -p cbr -e 500 -c 1 -i 48 -a 1 -x {0.0 4.0 24 ------- null}
- -t 0.74 -s 0 -d 2 -p cbr -e 500 -c 1 -i 48 -a 1 -x {0.0 4.0 24 ------- null}
h -t 0.74 -s 0 -d 2 -p cbr -e 500 -c 1 -i 48 -a 1 -x {0.0 4.0 -1 ------- null}
r -t 0.744 -s 0 -d 2 -p cbr -e 500 -c 1 -i 47 -a 1 -x {0.0 4.0 23 ------- null}
+ -t 0.744 -s 2 -d 4 -p cbr -e 500 -c 1 -i 47 -a 1 -x {0.0 4.0 23 ------- null}
- -t 0.744 -s 2 -d 4 -p cbr -e 500 -c 1 -i 47 -a 1 -x {0.0 4.0 23 ------- null}
h -t 0.744 -s 2 -d 4 -p cbr -e 500 -c 1 -i 47 -a 1 -x {0.0 4.0 -1 ------- null}
r -t 0.748 -s 2 -d 4 -p cbr -e 500 -c 1 -i 46 -a 1 -x {0.0 4.0 22 ------- null}
+ -t 0.75 -s 0 -d 2 -p cbr -e 500 -c 1 -i 49 -a 1 -x {0.0 4.0 25 ------- null}
- -t 0.75 -s 0 -d 2 -p cbr -e 500 -c 1 -i 49 -a 1 -x {0.0 4.0 25 ------- null}
h -t 0.75 -s 0 -d 2 -p cbr -e 500 -c 1 -i 49 -a 1 -x {0.0 4.0 -1 ------- null}
r -t 0.754 -s 0 -d 2 -p cbr -e 500 -c 1 -i 48 -a 1 -x {0.0 4.0 24 ------- null}
+ -t 0.754 -s 2 -d 4 -p cbr -e 500 -c 1 -i 48 -a 1 -x {0.0 4.0 24 ------- null}
- -t 0.754 -s 2 -d 4 -p cbr -e 500 -c 1 -i 48 -a 1 -x {0.0 4.0 24 ------- null}
h -t 0.754 -s 2 -d 4 -p cbr -e 500 -c 1 -i 48 -a 1 -x {0.0 4.0 -1 ------- null}
r -t 0.758 -s 2 -d 4 -p cbr -e 500 -c 1 -i 47 -a 1 -x {0.0 4.0 23 ------- null}
+ -t 0.76 -s 0 -d 2 -p cbr -e 500 -c 1 -i 50 -a 1 -x {0.0 4.0 26 ------- null}
- -t 0.76 -s 0 -d 2 -p cbr -e 500 -c 1 -i 50 -a 1 -x {0.0 4.0 26 ------- null}
h -t 0.76 -s 0 -d 2 -p cbr -e 500 -c 1 -i 50 -a 1 -x {0.0 4.0 -1 ------- null}
r -t 0.764 -s 0 -d 2 -p cbr -e 500 -c 1 -i 49 -a 1 -x {0.0 4.0 25 ------- null}
+ -t 0.764 -s 2 -d 4 -p cbr -e 500 -c 1 -i 49 -a 1 -x {0.0 4.0 25 ------- null}
- -t 0.764 -s 2 -d 4 -p cbr -e 500 -c 1 -i 49 -a 1 -x {0.0 4.0 25 ------- null}
h -t 0.764 -s 2 -d 4 -p cbr -e 500 -c 1 -i 49 -a 1 -x {0.0 4.0 -1 ------- null}
r -t 0.768 -s 2 -d 4 -p cbr -e 500 -c 1 -i 48 -a 1 -x {0.0 4.0 24 ------- null}
+ -t 0.77 -s 0 -d 2 -p cbr -e 500 -c 1 -i 51 -a 1 -x {0.0 4.0 27 ------- null}
- -t 0.77 -s 0 -d 2 -p cbr -e 500 -c 1 -i 51 -a 1 -x {0.0 4.0 27 ------- null}
h -t 0.77 -s 0 -d 2 -p cbr -e 500 -c 1 -i 51 -a 1 -x {0.0 4.0 -1 ------- null}
r -t 0.774 -s 0 -d 2 -p cbr -e 500 -c 1 -i 50 -a 1 -x {0.0 4.0 26 ------- null}
+ -t 0.774 -s 2 -d 4 -p cbr -e 500 -c 1 -i 50 -a 1 -x {0.0 4.0 26 ------- null}
- -t 0.774 -s 2 -d 4 -p cbr -e 500 -c 1 -i 50 -a 1 -x {0.0 4.0 26 ------- null}
h -t 0.774 -s 2 -d 4 -p cbr -e 500 -c 1 -i 50 -a 1 -x {0.0 4.0 -1 ------- null}
r -t 0.778 -s 2 -d 4 -p cbr -e 500 -c 1 -i 49 -a 1 -x {0.0 4.0 25 ------- null}
+ -t 0.78 -s 0 -d 2 -p cbr -e 500 -c 1 -i 52 -a 1 -x {0.0 4.0 28 ------- null}
- -t 0.78 -s 0 -d 2 -p cbr -e 500 -c 1 -i 52 -a 1 -x {0.0 4.0 28 ------- null}
h -t 0.78 -s 0 -d 2 -p cbr -e 500 -c 1 -i 52 -a 1 -x {0.0 4.0 -1 ------- null}
r -t 0.784 -s 0 -d 2 -p cbr -e 500 -c 1 -i 51 -a 1 -x {0.0 4.0 27 ------- null}
+ -t 0.784 -s 2 -d 4 -p cbr -e 500 -c 1 -i 51 -a 1 -x {0.0 4.0 27 ------- null}
- -t 0.784 -s 2 -d 4 -p cbr -e 500 -c 1 -i 51 -a 1 -x {0.0 4.0 27 ------- null}
h -t 0.784 -s 2 -d 4 -p cbr -e 500 -c 1 -i 51 -a 1 -x {0.0 4.0 -1 ------- null}
r -t 0.788 -s 2 -d 4 -p cbr -e 500 -c 1 -i 50 -a 1 -x {0.0 4.0 26 ------- null}
+ -t 0.79 -s 0 -d 2 -p cbr -e 500 -c 1 -i 53 -a 1 -x {0.0 4.0 29 ------- null}
- -t 0.79 -s 0 -d 2 -p cbr -e 500 -c 1 -i 53 -a 1 -x {0.0 4.0 29 ------- null}
h -t 0.79 -s 0 -d 2 -p cbr -e 500 -c 1 -i 53 -a 1 -x {0.0 4.0 -1 ------- null}
r -t 0.794 -s 0 -d 2 -p cbr -e 500 -c 1 -i 52 -a 1 -x {0.0 4.0 28 ------- null}
+ -t 0.794 -s 2 -d 4 -p cbr -e 500 -c 1 -i 52 -a 1 -x {0.0 4.0 28 ------- null}
- -t 0.794 -s 2 -d 4 -p cbr -e 500 -c 1 -i 52 -a 1 -x {0.0 4.0 28 ------- null}
h -t 0.794 -s 2 -d 4 -p cbr -e 500 -c 1 -i 52 -a 1 -x {0.0 4.0 -1 ------- null}
r -t 0.798 -s 2 -d 4 -p cbr -e 500 -c 1 -i 51 -a 1 -x {0.0 4.0 27 ------- null}
+ -t 0.8 -s 0 -d 2 -p cbr -e 500 -c 1 -i 54 -a 1 -x {0.0 4.0 30 ------- null}
- -t 0.8 -s 0 -d 2 -p cbr -e 500 -c 1 -i 54 -a 1 -x {0.0 4.0 30 ------- null}
h -t 0.8 -s 0 -d 2 -p cbr -e 500 -c 1 -i 54 -a 1 -x {0.0 4.0 -1 ------- null}
r -t 0.804 -s 0 -d 2 -p cbr -e 500 -c 1 -i 53 -a 1 -x {0.0 4.0 29 ------- null}
+ -t 0.804 -s 2 -d 4 -p cbr -e 500 -c 1 -i 53 -a 1 -x {0.0 4.0 29 ------- null}
- -t 0.804 -s 2 -d 4 -p cbr -e 500 -c 1 -i 53 -a 1 -x {0.0 4.0 29 ------- null}
h -t 0.804 -s 2 -d 4 -p cbr -e 500 -c 1 -i 53 -a 1 -x {0.0 4.0 -1 ------- null}
r -t 0.808 -s 2 -d 4 -p cbr -e 500 -c 1 -i 52 -a 1 -x {0.0 4.0 28 ------- null}
+ -t 0.81 -s 0 -d 2 -p cbr -e 500 -c 1 -i 55 -a 1 -x {0.0 4.0 31 ------- null}
- -t 0.81 -s 0 -d 2 -p cbr -e 500 -c 1 -i 55 -a 1 -x {0.0 4.0 31 ------- null}
h -t 0.81 -s 0 -d 2 -p cbr -e 500 -c 1 -i 55 -a 1 -x {0.0 4.0 -1 ------- null}
r -t 0.814 -s 0 -d 2 -p cbr -e 500 -c 1 -i 54 -a 1 -x {0.0 4.0 30 ------- null}
+ -t 0.814 -s 2 -d 4 -p cbr -e 500 -c 1 -i 54 -a 1 -x {0.0 4.0 30 ------- null}
- -t 0.814 -s 2 -d 4 -p cbr -e 500 -c 1 -i 54 -a 1 -x {0.0 4.0 30 ------- null}
h -t 0.814 -s 2 -d 4 -p cbr -e 500 -c 1 -i 54 -a 1 -x {0.0 4.0 -1 ------- null}
r -t 0.818 -s 2 -d 4 -p cbr -e 500 -c 1 -i 53 -a 1 -x {0.0 4.0 29 ------- null}
+ -t 0.82 -s 0 -d 2 -p cbr -e 500 -c 1 -i 56 -a 1 -x {0.0 4.0 32 ------- null}
- -t 0.82 -s 0 -d 2 -p cbr -e 500 -c 1 -i 56 -a 1 -x {0.0 4.0 32 ------- null}