V -t * -v 1.0a5 -a 0
A -t * -n 1 -p 0 -o 0x7fffffff -c 30 -a 1
A -t * -h 1 -m 1073741823 -s 0
n -t * -a 0 -s 0 -S UP -v circle -c black -i black
n -t * -a 1 -s 1 -S UP -v circle -c black -i black
l -t * -s 0 -d 1 -S UP -r 5000000 -D 0.001 -c black
+ -t 1 -s 0 -d 1 -p tcp -e 40 -c 0 -i 0 -a 0 -x {0.0 1.0 0 ------- null}
- -t 1 -s 0 -d 1 -p tcp -e 40 -c 0 -i 0 -a 0 -x {0.0 1.0 0 ------- null}
h -t 1 -s 0 -d 1 -p tcp -e 40 -c 0 -i 0 -a 0 -x {0.0 1.0 -1 ------- null}
r -t 1.001064 -s 0 -d 1 -p tcp -e 40 -c 0 -i 0 -a 0 -x {0.0 1.0 0 ------- null}
+ -t 1.001064 -s 1 -d 0 -p ack -e 40 -c 0 -i 1 -a 0 -x {1.0 0.0 0 ------- null}
- -t 1.001064 -s 1 -d 0 -p ack -e 40 -c 0 -i 1 -a 0 -x {1.0 0.0 0 ------- null}
h -t 1.001064 -s 1 -d 0 -p ack -e 40 -c 0 -i 1 -a 0 -x {1.0 0.0 -1 ------- null}
r -t 1.002128 -s 1 -d 0 -p ack -e 40 -c 0 -i 1 -a 0 -x {1.0 0.0 0 ------- null}
+ -t 1.002128 -s 0 -d 1 -p tcp -e 1040 -c 0 -i 2 -a 0 -x {0.0 1.0 1 ------- null}
- -t 1.002128 -s 0 -d 1 -p tcp -e 1040 -c 0 -i 2 -a 0 -x {0.0 1.0 1 ------- null}
h -t 1.002128 -s 0 -d 1 -p tcp -e 1040 -c 0 -i 2 -a 0 -x {0.0 1.0 -1 ------- null}
+ -t 1.002128 -s 0 -d 1 -p tcp -e 1040 -c 0 -i 3 -a 0 -x {0.0 1.0 2 ------- null}
- -t 1.003792 -s 0 -d 1 -p tcp -e 1040 -c 0 -i 3 -a 0 -x {0.0 1.0 2 ------- null}
h -t 1.003792 -s 0 -d 1 -p tcp -e 1040 -c 0 -i 3 -a 0 -x {0.0 1.0 -1 ------- null}
r -t 1.004792 -s 0 -d 1 -p tcp -e 1040 -c 0 -i 2 -a 0 -x {0.0 1.0 1 ------- null}
+ -t 1.004792 -s 1 -d 0 -p ack -e 40 -c 0 -i 4 -a 0 -x {1.0 0.0 1 ------- null}
- -t 1.004792 -s 1 -d 0 -p ack -e 40 -c 0 -i 4 -a 0 -x {1.0 0.0 1 ------- null}
h -t 1.004792 -s 1 -d 0 -p ack -e 40 -c 0 -i 4 -a 0 -x {1.0 0.0 -1 ------- null}
r -t 1.005856 -s 1 -d 0 -p ack -e 40 -c 0 -i 4 -a 0 -x {1.0 0.0 1 ------- null}
+ -t 1.005856 -s 0 -d 1 -p tcp -e 1040 -c 0 -i 5 -a 0 -x {0.0 1.0 3 ------- null}
- -t 1.005856 -s 0 -d 1 -p tcp -e 1040 -c 0 -i 5 -a 0 -x {0.0 1.0 3 ------- null}
h -t 1.005856 -s 0 -d 1 -p tcp -e 1040 -c 0 -i 5 -a 0 -x {0.0 1.0 -1 ------- null}
+ -t 1.005856 -s 0 -d 1 -p tcp -e 1040 -c 0 -i 6 -a 0 -x {0.0 1.0 4 ------- null}
r -t 1.006456 -s 0 -d 1 -p tcp -e 1040 -c 0 -i 3 -a 0 -x {0.0 1.0 2 ------- null}
+ -t 1.006456 -s 1 -d 0 -p ack -e 40 -c 0 -i 7 -a 0 -x {1.0 0.0 2 ------- null}
- -t 1.006456 -s 1 -d 0 -p ack -e 40 -c 0 -i 7 -a 0 -x {1.0 0.0 2 ------- null}
h -t 1.006456 -s 1 -d 0 -p ack -e 40 -c 0 -i 7 -a 0 -x {1.0 0.0 -1 ------- null}
- -t 1.00752 -s 0 -d 1 -p tcp -e 1040 -c 0 -i 6 -a 0 -x {0.0 1.0 4 ------- null}
h -t 1.00752 -s 0 -d 1 -p tcp -e 1040 -c 0 -i 6 -a 0 -x {0.0 1.0 -1 ------- null}
r -t 1.00752 -s 1 -d 0 -p ack -e 40 -c 0 -i 7 -a 0 -x {1.0 0.0 2 ------- null}
+ -t 1.00752 -s 0 -d 1 -p tcp -e 1040 -c 0 -i 8 -a 0 -x {0.0 1.0 5 ------- null}
+ -t 1.00752 -s 0 -d 1 -p tcp -e 1040 -c 0 -i 9 -a 0 -x {0.0 1.0 6 ------- null}
r -t 1.00852 -s 0 -d 1 -p tcp -e 1040 -c 0 -i 5 -a 0 -x {0.0 1.0 3 ------- null}
+ -t 1.00852 -s 1 -d 0 -p ack -e 40 -c 0 -i 10 -a 0 -x {1.0 0.0 3 ------- null}
- -t 1.00852 -s 1 -d 0 -p ack -e 40 -c 0 -i 10 -a 0 -x {1.0 0.0 3 ------- null}
h -t 1.00852 -s 1 -d 0 -p ack -e 40 -c 0 -i 10 -a 0 -x {1.0 0.0 -1 ------- null}
- -t 1.009184 -s 0 -d 1 -p tcp -e 1040 -c 0 -i 8 -a 0 -x {0.0 1.0 5 ------- null}
h -t 1.009184 -s 0 -d 1 -p tcp -e 1040 -c 0 -i 8 -a 0 -x {0.0 1.0 -1 ------- null}
r -t 1.009584 -s 1 -d 0 -p ack -e 40 -c 0 -i 10 -a 0 -x {1.0 0.0 3 ------- null}
+ -t 1.009584 -s 0 -d 1 -p tcp -e 1040 -c 0 -i 11 -a 0 -x {0.0 1.0 7 ------- null}
+ -t 1.009584 -s 0 -d 1 -p tcp -e 1040 -c 0 -i 12 -a 0 -x {0.0 1.0 8 ------- null}
r -t 1.010184 -s 0 -d 1 -p tcp -e 1040 -c 0 -i 6 -a 0 -x {0.0 1.0 4 ------- null}
+ -t 1.010184 -s 1 -d 0 -p ack -e 40 -c 0 -i 13 -a 0 -x {1.0 0.0 4 ------- null}
- -t 1.010184 -s 1 -d 0 -p ack -e 40 -c 0 -i 13 -a 0 -x {1.0 0.0 4 ------- null}
h -t 1.010184 -s 1 -d 0 -p ack -e 40 -c 0 -i 13 -a 0 -x {1.0 0.0 -1 ------- null}
- -t 1.010848 -s 0 -d 1 -p tcp -e 1040 -c 0 -i 9 -a 0 -x {0.0 1.0 6 ------- null}
h -t 1.010848 -s 0 -d 1 -p tcp -e 1040 -c 0 -i 9 -a 0 -x {0.0 1.0 -1 ------- null}
r -t 1.011248 -s 1 -d 0 -p ack -e 40 -c 0 -i 13 -a 0 -x {1.0 0.0 4 ------- null}
+ -t 1.011248 -s 0 -d 1 -p tcp -e 1040 -c 0 -i 14 -a 0 -x {0.0 1.0 9 ------- null}
+ -t 1.011248 -s 0 -d 1 -p tcp -e 1040 -c 0 -i 15 -a 0 -x {0.0 1.0 10 ------- null}
r -t 1.011848 -s 0 -d 1 -p tcp -e 1040 -c 0 -i 8 -a 0 -x {0.0 1.0 5 ------- null}
+ -t 1.011848 -s 1 -d 0 -p ack -e 40 -c 0 -i 16 -a 0 -x {1.0 0.0 5 ------- null}
- -t 1.011848 -s 1 -d 0 -p ack -e 40 -c 0 -i 16 -a 0 -x {1.0 0.0 5 ------- null}
h -t 1.011848 -s 1 -d 0 -p ack -e 40 -c 0 -i 16 -a 0 -x {1.0 0.0 -1 ------- null}
- -t 1.012512 -s 0 -d 1 -p tcp -e 1040 -c 0 -i 11 -a 0 -x {0.0 1.0 7 ------- null}
h -t 1.012512 -s 0 -d 1 -p tcp -e 1040 -c 0 -i 11 -a 0 -x {0.0 1.0 -1 ------- null}
r -t 1.012912 -s 1 -d 0 -p ack -e 40 -c 0 -i 16 -a 0 -x {1.0 0.0 5 ------- null}
+ -t 1.012912 -s 0 -d 1 -p tcp -e 1040 -c 0 -i 17 -a 0 -x {0.0 1.0 11 ------- null}
+ -t 1.012912 -s 0 -d 1 -p tcp -e 1040 -c 0 -i 18 -a 0 -x {0.0 1.0 12 ------- null}
r -t 1.013512 -s 0 -d 1 -p tcp -e 1040 -c 0 -i 9 -a 0 -x {0.0 1.0 6 ------- null}
+ -t 1.013512 -s 1 -d 0 -p ack -e 40 -c 0 -i 19 -a 0 -x {1.0 0.0 6 ------- null}
- -t 1.013512 -s 1 -d 0 -p ack -e 40 -c 0 -i 19 -a 0 -x {1.0 0.0 6 ------- null}
h -t 1.013512 -s 1 -d 0 -p ack -e 40 -c 0 -i 19 -a 0 -x {1.0 0.0 -1 ------- null}
- -t 1.014176 -s 0 -d 1 -p tcp -e 1040 -c 0 -i 12 -a 0 -x {0.0 1.0 8 ------- null}
h -t 1.014176 -s 0 -d 1 -p tcp -e 1040 -c 0 -i 12 -a 0 -x {0.0 1.0 -1 ------- null}
r -t 1.014576 -s 1 -d 0 -p ack -e 40 -c 0 -i 19 -a 0 -x {1.0 0.0 6 ------- null}
+ -t 1.014576 -s 0 -d 1 -p tcp -e 1040 -c 0 -i 20 -a 0 -x {0.0 1.0 13 ------- null}
+ -t 1.014576 -s 0 -d 1 -p tcp -e 1040 -c 0 -i 21 -a 0 -x {0.0 1.0 14 ------- null}
r -t 1.015176 -s 0 -d 1 -p tcp -e 1040 -c 0 -i 11 -a 0 -x {0.0 1.0 7 ------- null}
+ -t 1.015176 -s 1 -d 0 -p ack -e 40 -c 0 -i 22 -a 0 -x {1.0 0.0 7 ------- null}
- -t 1.015176 -s 1 -d 0 -p ack -e 40 -c 0 -i 22 -a 0 -x {1.0 0.0 7 ------- null}
h -t 1.015176 -s 1 -d 0 -p ack -e 40 -c 0 -i 22 -a 0 -x {1.0 0.0 -1 ------- null}
- -t 1.01584 -s 0 -d 1 -p tcp -e 1040 -c 0 -i 14 -a 0 -x {0.0 1.0 9 ------- null}
h -t 1.01584 -s 0 -d 1 -p tcp -e 1040 -c 0 -i 14 -a 0 -x {0.0 1.0 -1 ------- null}
r -t 1.01624 -s 1 -d 0 -p ack -e 40 -c 0 -i 22 -a 0 -x {1.0 0.0 7 ------- null}
+ -t 1.01624 -s 0 -d 1 -p tcp -e 1040 -c 0 -i 23 -a 0 -x {0.0 1.0 15 ------- null}
+ -t 1.01624 -s 0 -d 1 -p tcp -e 1040 -c 0 -i 24 -a 0 -x {0.0 1.0 16 ------- null}
r -t 1.01684 -s 0 -d 1 -p tcp -e 1040 -c 0 -i 12 -a 0 -x {0.0 1.0 8 ------- null}
+ -t 1.01684 -s 1 -d 0 -p ack -e 40 -c 0 -i 25 -a 0 -x {1.0 0.0 8 ------- null}
- -t 1.01684 -s 1 -d 0 -p ack -e 40 -c 0 -i 25 -a 0 -x {1.0 0.0 8 ------- null}
h -t 1.01684 -s 1 -d 0 -p ack -e 40 -c 0 -i 25 -a 0 -x {1.0 0.0 -1 ------- null}
- -t 1.017504 -s 0 -d 1 -p tcp -e 1040 -c 0 -i 15 -a 0 -x {0.0 1.0 10 ------- null}
h -t 1.017504 -s 0 -d 1 -p tcp -e 1040 -c 0 -i 15 -a 0 -x {0.0 1.0 -1 ------- null}
r -t 1.017904 -s 1 -d 0 -p ack -e 40 -c 0 -i 25 -a 0 -x {1.0 0.0 8 ------- null}
+ -t 1.017904 -s 0 -d 1 -p tcp -e 1040 -c 0 -i 26 -a 0 -x {0.0 1.0 17 ------- null}
+ -t 1.017904 -s 0 -d 1 -p tcp -e 1040 -c 0 -i 27 -a 0 -x {0.0 1.0 18 ------- null}
r -t 1.018504 -s 0 -d 1 -p tcp -e 1040 -c 0 -i 14 -a 0 -x {0.0 1.0 9 ------- null}
+ -t 1.018504 -s 1 -d 0 -p ack -e 40 -c 0 -i 28 -a 0 -x {1.0 0.0 9 ------- null}
- -t 1.018504 -s 1 -d 0 -p ack -e 40 -c 0 -i 28 -a 0 -x {1.0 0.0 9 ------- null}
h -t 1.018504 -s 1 -d 0 -p ack -e 40 -c 0 -i 28 -a 0 -x {1.0 0.0 -1 ------- null}
- -t 1.019168 -s 0 -d 1 -p tcp -e 1040 -c 0 -i 17 -a 0 -x {0.0 1.0 11 ------- null}
h -t 1.019168 -s 0 -d 1 -p tcp -e 1040 -c 0 -i 17 -a 0 -x {0.0 1.0 -1 ------- null}
r -t 1.019568 -s 1 -d 0 -p ack -e 40 -c 0 -i 28 -a 0 -x {1.0 0.0 9 ------- null}
+ -t 1.019568 -s 0 -d 1 -p tcp -e 1040 -c 0 -i 29 -a 0 -x {0.0 1.0 19 ------- null}
+ -t 1.019568 -s 0 -d 1 -p tcp -e 1040 -c 0 -i 30 -a 0 -x {0.0 1.0 20 ------- null}
r -t 1.020168 -s 0 -d 1 -p tcp -e 1040 -c 0 -i 15 -a 0 -x {0.0 1.0 10 ------- null}
+ -t 1.020168 -s 1 -d 0 -p ack -e 40 -c 0 -i 31 -a 0 -x {1.0 0.0 10 ------- null}
- -t 1.020168 -s 1 -d 0 -p ack -e 40 -c 0 -i 31 -a 0 -x {1.0 0.0 10 ------- null}
h -t 1.020168 -s 1 -d 0 -p ack -e 40 -c 0 -i 31 -a 0 -x {1.0 0.0 -1 ------- null}
- -t 1.020832 -s 0 -d 1 -p tcp -e 1040 -c 0 -i 18 -a 0 -x {0.0 1.0 12 ------- null}
h -t 1.020832 -s 0 -d 1 -p tcp -e 1040 -c 0 -i 18 -a 0 -x {0.0 1.0 -1 ------- null}
r -t 1.021232 -s 1 -d 0 -p ack -e 40 -c 0 -i 31 -a 0 -x {1.0 0.0 10 ------- null}
+ -t 1.021232 -s 0 -d 1 -p tcp -e 1040 -c 0 -i 32 -a 0 -x {0.0 1.0 21 ------- null}
+ -t 1.021232 -s 0 -d 1 -p tcp -e 1040 -c 0 -i 33 -a 0 -x {0.0 1.0 22 ------- null}
r -t 1.021832 -s 0 -d 1 -p tcp -e 1040 -c 0 -i 17 -a 0 -x {0.0 1.0 11 ------- null}
+ -t 1.021832 -s 1 -d 0 -p ack -e 40 -c 0 -i 34 -a 0 -x {1.0 0.0 11 ------- null}
- -t 1.021832 -s 1 -d 0 -p ack -e 40 -c 0 -i 34 -a 0 -x {1.0 0.0 11 ------- null}
h -t 1.021832 -s 1 -d 0 -p ack -e 40 -c 0 -i 34 -a 0 -x {1.0 0.0 -1 ------- null}
- -t 1.022496 -s 0 -d 1 -p tcp -e 1040 -c 0 -i 20 -a 0 -x {0.0 1.0 13 ------- null}
h -t 1.022496 -s 0 -d 1 -p tcp -e 1040 -c 0 -i 20 -a 0 -x {0.0 1.0 -1 ------- null}
r -t 1.022896 -s 1 -d 0 -p ack -e 40 -c 0 -i 34 -a 0 -x {1.0 0.0 11 ------- null}
+ -t 1.022896 -s 0 -d 1 -p tcp -e 1040 -c 0 -i 35 -a 0 -x {0.0 1.0 23 ------- null}
+ -t 1.022896 -s 0 -d 1 -p tcp -e 1040 -c 0 -i 36 -a 0 -x {0.0 1.0 24 ------- null}
r -t 1.023496 -s 0 -d 1 -p tcp -e 1040 -c 0 -i 18 -a 0 -x {0.0 1.0 12 ------- null}
+ -t 1.023496 -s 1 -d 0 -p ack -e 40 -c 0 -i 37 -a 0 -x {1.0 0.0 12 ------- null}
- -t 1.023496 -s 1 -d 0 -p ack -e 40 -c 0 -i 37 -a 0 -x {1.0 0.0 12 ------- null}
h -t 1.023496 -s 1 -d 0 -p ack -e 40 -c 0 -i 37 -a 0 -x {1.0 0.0 -1 ------- null}
- -t 1.02416 -s 0 -d 1 -p tcp -e 1040 -c 0 -i 21 -a 0 -x {0.0 1.0 14 ------- null}
h -t 1.02416 -s 0 -d 1 -p tcp -e 1040 -c 0 -i 21 -a 0 -x {0.0 1.0 -1 ------- null}
r -t 1.02456 -s 1 -d 0 -p ack -e 40 -c 0 -i 37 -a 0 -x {1.0 0.0 12 ------- null}
+ -t 1.02456 -s 0 -d 1 -p tcp -e 1040 -c 0 -i 38 -a 0 -x {0.0 1.0 25 ------- null}
+ -t 1.02456 -s 0 -d 1 -p tcp -e 1040 -c 0 -i 39 -a 0 -x {0.0 1.0 26 ------- null}
r -t 1.02516 -s 0 -d 1 -p tcp -e 1040 -c 0 -i 20 -a 0 -x {0.0 1.0 13 ------- null}
+ -t 1.02516 -s 1 -d 0 -p ack -e 40 -c 0 -i 40 -a 0 -x {1.0 0.0 13 ------- null}
- -t 1.02516 -s 1 -d 0 -p ack -e 40 -c 0 -i 40 -a 0 -x {1.0 0.0 13 ------- null}
h -t 1.02516 -s 1 -d 0 -p ack -e 40 -c 0 -i 40 -a 0 -x {1.0 0.0 -1 ------- null}
- -t 1.025824 -s 0 -d 1 -p tcp -e 1040 -c 0 -i 23 -a 0 -x {0.0 1.0 15 ------- null}
h -t 1.025824 -s 0 -d 1 -p tcp -e 1040 -c 0 -i 23 -a 0 -x {0.0 1.0 -1 ------- null}
r -t 1.026224 -s 1 -d 0 -p ack -e 40 -c 0 -i 40 -a 0 -x {1.0 0.0 13 ------- null}
+ -t 1.026224 -s 0 -d 1 -p tcp -e 1040 -c 0 -i 41 -a 0 -x {0.0 1.0 27 ------- null}
+ -t 1.026224 -s 0 -d 1 -p tcp -e 1040 -c 0 -i 42 -a 0 -x {0.0 1.0 28 ------- null}
r -t 1.026824 -s 0 -d 1 -p tcp -e 1040 -c 0 -i 21 -a 0 -x {0.0 1.0 14 ------- null}
+ -t 1.026824 -s 1 -d 0 -p ack -e 40 -c 0 -i 43 -a 0 -x {1.0 0.0 14 ------- null}
- -t 1.026824 -s 1 -d 0 -p ack -e 40 -c 0 -i 43 -a 0 -x {1.0 0.0 14 ------- null}
h -t 1.026824 -s 1 -d 0 -p ack -e 40 -c 0 -i 43 -a 0 -x {1.0 0.0 -1 ------- null}
- -t 1.027488 -s 0 -d 1 -p tcp -e 1040 -c 0 -i 24 -a 0 -x {0.0 1.0 16 ------- null}
h -t 1.027488 -s 0 -d 1 -p tcp -e 1040 -c 0 -i 24 -a 0 -x {0.0 1.0 -1 ------- null}
r -t 1.027888 -s 1 -d 0 -p ack -e 40 -c 0 -i 43 -a 0 -x {1.0 0.0 14 ------- null}
+ -t 1.027888 -s 0 -d 1 -p tcp -e 1040 -c 0 -i 44 -a 0 -x {0.0 1.0 29 ------- null}
+ -t 1.027888 -s 0 -d 1 -p tcp -e 1040 -c 0 -i 45 -a 0 -x {0.0 1.0 30 ------- null}
r -t 1.028488 -s 0 -d 1 -p tcp -e 1040 -c 0 -i 23 -a 0 -x {0.0 1.0 15 ------- null}
+ -t 1.028488 -s 1 -d 0 -p ack -e 40 -c 0 -i 46 -a 0 -x {1.0 0.0 15 ------- null}
- -t 1.028488 -s 1 -d 0 -p ack -e 40 -c 0 -i 46 -a 0 -x {1.0 0.0 15 ------- null}
h -t 1.028488 -s 1 -d 0 -p ack -e 40 -c 0 -i 46 -a 0 -x {1.0 0.0 -1 ------- null}
- -t 1.029152 -s 0 -d 1 -p tcp -e 1040 -c 0 -i 26 -a 0 -x {0.0 1.0 17 ------- null}
h -t 1.029152 -s 0 -d 1 -p tcp -e 1040 -c 0 -i 26 -a 0 -x {0.0 1.0 -1 ------- null}
r -t 1.029552 -s 1 -d 0 -p ack -e 40 -c 0 -i 46 -a 0 -x {1.0 0.0 15 ------- null}
+ -t 1.029552 -s 0 -d 1 -p tcp -e 1040 -c 0 -i 47 -a 0 -x {0.0 1.0 31 ------- null}
+ -t 1.029552 -s 0 -d 1 -p tcp -e 1040 -c 0 -i 48 -a 0 -x {0.0 1.0 32 ------- null}
r -t 1.030152 -s 0 -d 1 -p tcp -e 1040 -c 0 -i 24 -a 0 -x {0.0 1.0 16 ------- null}
+ -t 1.030152 -s 1 -d 0 -p ack -e 40 -c 0 -i 49 -a 0 -x {1.0 0.0 16 ------- null}
- -t 1.030152 -s 1 -d 0 -p ack -e 40 -c 0 -i 49 -a 0 -x {1.0 0.0 16 ------- null}
h -t 1.030152 -s 1 -d 0 -p ack -e 40 -c 0 -i 49 -a 0 -x {1.0 0.0 -1 ------- null}
- -t 1.030816 -s 0 -d 1 -p tcp -e 1040 -c 0 -i 27 -a 0 -x {0.0 1.0 18 ------- null}
h -t 1.030816 -s 0 -d 1 -p tcp -e 1040 -c 0 -i 27 -a 0 -x {0.0 1.0 -1 ------- null}
r -t 1.031216 -s 1 -d 0 -p ack -e 40 -c 0 -i 49 -a 0 -x {1.0 0.0 16 ------- null}
+ -t 1.031216 -s 0 -d 1 -p tcp -e 1040 -c 0 -i 50 -a 0 -x {0.0 1.0 33 ------- null}
+ -t 1.031216 -s 0 -d 1 -p tcp -e 1040 -c 0 -i 51 -a 0 -x {0.0 1.0 34 ------- null}
r -t 1.031816 -s 0 -d 1 -p tcp -e 1040 -c 0 -i 26 -a 0 -x {0.0 1.0 17 ------- null}
+ -t 1.031816 -s 1 -d 0 -p ack -e 40 -c 0 -i 52 -a 0 -x {1.0 0.0 17 ------- null}
- -t 1.031816 -s 1 -d 0 -p ack -e 40 -c 0 -i 52 -a 0 -x {1.0 0.0 17 ------- null}
h -t 1.031816 -s 1 -d 0 -p ack -e 40 -c 0 -i 52 -a 0 -x {1.0 0.0 -1 ------- null}
- -t 1.03248 -s 0 -d 1 -p tcp -e 1040 -c 0 -i 29 -a 0 -x {0.0 1.0 19 ------- null}
h -t 1.03248 -s 0 -d 1 -p tcp -e 1040 -c 0 -i 29 -a 0 -x {0.0 1.0 -1 ------- null}
r -t 1.03288 -s 1 -d 0 -p ack -e 40 -c 0 -i 52 -a 0 -x {1.0 0.0 17 ------- null}
+ -t 1.03288 -s 0 -d 1 -p tcp -e 1040 -c 0 -i 53 -a 0 -x {0.0 1.0 35 ------- null}
+ -t 1.03288 -s 0 -d 1 -p tcp -e 1040 -c 0 -i 54 -a 0 -x {0.0 1.0 36 ------- null}
r -t 1.03348 -s 0 -d 1 -p tcp -e 1040 -c 0 -i 27 -a 0 -x {0.0 1.0 18 ------- null}
+ -t 1.03348 -s 1 -d 0 -p ack -e 40 -c 0 -i 55 -a 0 -x {1.0 0.0 18 ------- null}
- -t 1.03348 -s 1 -d 0 -p ack -e 40 -c 0 -i 55 -a 0 -x {1.0 0.0 18 ------- null}
h -t 1.03348 -s 1 -d 0 -p ack -e 40 -c 0 -i 55 -a 0 -x {1.0 0.0 -1 ------- null}
- -t 1.034144 -s 0 -d 1 -p tcp -e 1040 -c 0 -i 30 -a 0 -x {0.0 1.0 20 ------- null}
h -t 1.034144 -s 0 -d 1 -p tcp -e 1040 -c 0 -i 30 -a 0 -x {0.0 1.0 -1 ------- null}
r -t 1.034544 -s 1 -d 0 -p ack -e 40 -c 0 -i 55 -a 0 -x {1.0 0.0 18 ------- null}
+ -t 1.034544 -s 0 -d 1 -p tcp -e 1040 -c 0 -i 56 -a 0 -x {0.0 1.0 37 ------- null}
+ -t 1.034544 -s 0 -d 1 -p tcp -e 1040 -c 0 -i 57 -a 0 -x {0.0 1.0 38 ------- null}
r -t 1.035144 -s 0 -d 1 -p tcp -e 1040 -c 0 -i 29 -a 0 -x {0.0 1.0 19 ------- null}
+ -t 1.035144 -s 1 -d 0 -p ack -e 40 -c 0 -i 58 -a 0 -x {1.0 0.0 19 ------- null}
- -t 1.035144 -s 1 -d 0 -p ack -e 40 -c 0 -i 58 -a 0 -x {1.0 0.0 19 ------- null}
h -t 1.035144 -s 1 -d 0 -p ack -e 40 -c 0 -i 58 -a 0 -x {1.0 0.0 -1 ------- null}
- -t 1.035808 -s 0 -d 1 -p tcp -e 1040 -c 0 -i 32 -a 0 -x {0.0 1.0 21 ------- null}
h -t 1.035808 -s 0 -d 1 -p tcp -e 1040 -c 0 -i 32 -a 0 -x {0.0 1.0 -1 ------- null}
r -t 1.036208 -s 1 -d 0 -p ack -e 40 -c 0 -i 58 -a 0 -x {1.0 0.0 19 ------- null}
+ -t 1.036208 -s 0 -d 1 -p tcp -e 1040 -c 0 -i 59 -a 0 -x {0.0 1.0 39 ------- null}
r -t 1.036808 -s 0 -d 1 -p tcp -e 1040 -c 0 -i 30 -a 0 -x {0.0 1.0 20 ------- null}
+ -t 1.036808 -s 1 -d 0 -p ack -e 40 -c 0 -i 60 -a 0 -x {1.0 0.0 20 ------- null}
- -t 1.036808 -s 1 -d 0 -p ack -e 40 -c 0 -i 60 -a 0 -x {1.0 0.0 20 ------- null}
h -t 1.036808 -s 1 -d 0 -p ack -e 40 -c 0 -i 60 -a 0 -x {1.0 0.0 -1 ------- null}
- -t 1.037472 -s 0 -d 1 -p tcp -e 1040 -c 0 -i 33 -a 0 -x {0.0 1.0 22 ------- null}
h -t 1.037472 -s 0 -d 1 -p tcp -e 1040 -c 0 -i 33 -a 0 -x {0.0 1.0 -1 ------- null}
r -t 1.037872 -s 1 -d 0 -p ack -e 40 -c 0 -i 60 -a 0 -x {1.0 0.0 20 ------- null}
+ -t 1.037872 -s 0 -d 1 -p tcp -e 1040 -c 0 -i 61 -a 0 -x {0.0 1.0 40 ------- null}
r -t 1.038472 -s 0 -d 1 -p tcp -e 1040 -c 0 -i 32 -a 0 -x {0.0 1.0 21 ------- null}
+ -t 1.038472 -s 1 -d 0 -p ack -e 40 -c 0 -i 62 -a 0 -x {1.0 0.0 21 ------- null}
- -t 1.038472 -s 1 -d 0 -p ack -e 40 -c 0 -i 62 -a 0 -x {1.0 0.0 21 ------- null}
h -t 1.038472 -s 1 -d 0 -p ack -e 40 -c 0 -i 62 -a 0 -x {1.0 0.0 -1 ------- null}
- -t 1.039136 -s 0 -d 1 -p tcp -e 1040 -c 0 -i 35 -a 0 -x {0.0 1.0 23 ------- null}
h -t 1.039136 -s 0 -d 1 -p tcp -e 1040 -c 0 -i 35 -a 0 -x {0.0 1.0 -1 ------- null}
r -t 1.039536 -s 1 -d 0 -p ack -e 40 -c 0 -i 62 -a 0 -x {1.0 0.0 21 ------- null}
+ -t 1.039536 -s 0 -d 1 -p tcp -e 1040 -c 0 -i 63 -a 0 -x {0.0 1.0 41 ------- null}
r -t 1.040136 -s 0 -d 1 -p tcp -e 1040 -c 0 -i 33 -a 0 -x {0.0 1.0 22 ------- null}
+ -t 1.040136 -s 1 -d 0 -p ack -e 40 -c 0 -i 64 -a 0 -x {1.0 0.0 22 ------- null}
- -t 1.040136 -s 1 -d 0 -p ack -e 40 -c 0 -i 64 -a 0 -x {1.0 0.0 22 ------- null}
h -t 1.040136 -s 1 -d 0 -p ack -e 40 -c 0 -i 64 -a 0 -x {1.0 0.0 -1 ------- null}
- -t 1.0408 -s 0 -d 1 -p tcp -e 1040 -c 0 -i 36 -a 0 -x {0.0 1.0 24 ------- null}
h -t 1.0408 -s 0 -d 1 -p tcp -e 1040 -c 0 -i 36 -a 0 -x {0.0 1.0 -1 ------- null}
r -t 1.0412 -s 1 -d 0 -p ack -e 40 -c 0 -i 64 -a 0 -x {1.0 0.0 22 ------- null}
+ -t 1.0412 -s 0 -d 1 -p tcp -e 1040 -c 0 -i 65 -a 0 -x {0.0 1.0 42 ------- null}
r -t 1.0418 -s 0 -d 1 -p tcp -e 1040 -c 0 -i 35 -a 0 -x {0.0 1.0 23 ------- null}
+ -t 1.0418 -s 1 -d 0 -p ack -e 40 -c 0 -i 66 -a 0 -x {1.0 0.0 23 ------- null}
- -t 1.0418 -s 1 -d 0 -p ack -e 40 -c 0 -i 66 -a 0 -x {1.0 0.0 23 ------- null}
h -t 1.0418 -s 1 -d 0 -p ack -e 40 -c 0 -i 66 -a 0 -x {1.0 0.0 -1 ------- null}
- -t 1.042464 -s 0 -d 1 -p tcp -e 1040 -c 0 -i 38 -a 0 -x {0.0 1.0 25 ------- null}
h -t 1.042464 -s 0 -d 1 -p tcp -e 1040 -c 0 -i 38 -a 0 -x {0.0 1.0 -1 ------- null}
r -t 1.042864 -s 1 -d 0 -p ack -e 40 -c 0 -i 66 -a 0 -x {1.0 0.0 23 ------- null}
+ -t 1.042864 -s 0 -d 1 -p tcp -e 1040 -c 0 -i 67 -a 0 -x {0.0 1.0 43 ------- null}
r -t 1.043464 -s 0 -d 1 -p tcp -e 1040 -c 0 -i 36 -a 0 -x {0.0 1.0 24 ------- null}
+ -t 1.043464 -s 1 -d 0 -p ack -e 40 -c 0 -i 68 -a 0 -x {1.0 0.0 24 ------- null}
- -t 1.043464 -s 1 -d 0 -p ack -e 40 -c 0 -i 68 -a 0 -x {1.0 0.0 24 ------- null}
h -t 1.043464 -s 1 -d 0 -p ack -e 40 -c 0 -i 68 -a 0 -x {1.0 0.0 -1 ------- null}
- -t 1.044128 -s 0 -d 1 -p tcp -e 1040 -c 0 -i 39 -a 0 -x {0.0 1.0 26 ------- null}
h -t 1.044128 -s 0 -d 1 -p tcp -e 1040 -c 0 -i 39 -a 0 -x {0.0 1.0 -1 ------- null}
r -t 1.044528 -s 1 -d 0 -p ack -e 40 -c 0 -i 68 -a 0 -x {1.0 0.0 24 ------- null}
+ -t 1.044528 -s 0 -d 1 -p tcp -e 1040 -c 0 -i 69 -a 0 -x {0.0 1.0 44 ------- null}
r -t 1.045128 -s 0 -d 1 -p tcp -e 1040 -c 0 -i 38 -a 0 -x {0.0 1.0 25 ------- null}
+ -t 1.045128 -s 1 -d 0 -p ack -e 40 -c 0 -i 70 -a 0 -x {1.0 0.0 25 ------- null}
- -t 1.045128 -s 1 -d 0 -p ack -e 40 -c 0 -i 70 -a 0 -x {1.0 0.0 25 ------- null}
h -t 1.045128 -s 1 -d 0 -p ack -e 40 -c 0 -i 70 -a 0 -x {1.0 0.0 -1 ------- null}
- -t 1.045792 -s 0 -d 1 -p tcp -e 1040 -c 0 -i 41 -a 0 -x {0.0 1.0 27 ------- null}
h -t 1.045792 -s 0 -d 1 -p tcp -e 1040 -c 0 -i 41 -a 0 -x {0.0 1.0 -1 ------- null}
r -t 1.046192 -s 1 -d 0 -p ack -e 40 -c 0 -i 70 -a 0 -x {1.0 0.0 25 ------- null}
+ -t 1.046192 -s 0 -d 1 -p tcp -e 1040 -c 0 -i 71 -a 0 -x {0.0 1.0 45 ------- null}
r -t 1.046792 -s 0 -d 1 -p tcp -e 1040 -c 0 -i 39 -a 0 -x {0.0 1.0 26 ------- null}
+ -t 1.046792 -s 1 -d 0 -p ack -e 40 -c 0 -i 72 -a 0 -x {1.0 0.0 26 ------- null}
- -t 1.046792 -s 1 -d 0 -p ack -e 40 -c 0 -i 72 -a 0 -x {1.0 0.0 26 ------- null}
h -t 1.046792 -s 1 -d 0 -p ack -e 40 -c 0 -i 72 -a 0 -x {1.0 0.0 -1 ------- null}
- -t 1.047456 -s 0 -d 1 -p tcp -e 1040 -c 0 -i 42 -a 0 -x {0.0 1.0 28 ------- null}
h -t 1.047456 -s 0 -d 1 -p tcp -e 1040 -c 0 -i 42 -a 0 -x {0.0 1.0 -1 ------- null}
r -t 1.047856 -s 1 -d 0 -p ack -e 40 -c 0 -i 72 -a 0 -x {1.0 0.0 26 ------- null}
+ -t 1.047856 -s 0 -d 1 -p tcp -e 1040 -c 0 -i 73 -a 0 -x {0.0 1.0 46 ------- null}
r -t 1.048456 -s 0 -d 1 -p tcp -e 1040 -c 0 -i 41 -a 0 -x {0.0 1.0 27 ------- null}
+ -t 1.048456 -s 1 -d 0 -p ack -e 40 -c 0 -i 74 -a 0 -x {1.0 0.0 27 ------- null}
- -t 1.048456 -s 1 -d 0 -p ack -e 40 -c 0 -i 74 -a 0 -x {1.0 0.0 27 ------- null}
h -t 1.048456 -s 1 -d 0 -p ack -e 40 -c 0 -i 74 -a 0 -x {1.0 0.0 -1 ------- null}
- -t 1.04912 -s 0 -d 1 -p tcp -e 1040 -c 0 -i 44 -a 0 -x {0.0 1.0 29 ------- null}
h -t 1.04912 -s 0 -d 1 -p tcp -e 1040 -c 0 -i 44 -a 0 -x {0.0 1.0 -1 ------- null}
r -t 1.04952 -s 1 -d 0 -p ack -e 40 -c 0 -i 74 -a 0 -x {1.0 0.0 27 ------- null}
+ -t 1.04952 -s 0 -d 1 -p tcp -e 1040 -c 0 -i 75 -a 0 -x {0.0 1.0 47 ------- null}
r -t 1.05012 -s 0 -d 1 -p tcp -e 1040 -c 0 -i 42 -a 0 -x {0.0 1.0 28 ------- null}
+ -t 1.05012 -s 1 -d 0 -p ack -e 40 -c 0 -i 76 -a 0 -x {1.0 0.0 28 ------- null}
- -t 1.05012 -s 1 -d 0 -p ack -e 40 -c 0 -i 76 -a 0 -x {1.0 0.0 28 ------- null}
h -t 1.05012 -s 1 -d 0 -p ack -e 40 -c 0 -i 76 -a 0 -x {1.0 0.0 -1 ------- null}
- -t 1.050784 -s 0 -d 1 -p tcp -e 1040 -c 0 -i 45 -a 0 -x {0.0 1.0 30 ------- null}
h -t 1.050784 -s 0 -d 1 -p tcp -e 1040 -c 0 -i 45 -a 0 -x {0.0 1.0 -1 ------- null}
r -t 1.051184 -s 1 -d 0 -p ack -e 40 -c 0 -i 76 -a 0 -x {1.0 0.0 28 ------- null}
+ -t 1.051184 -s 0 -d 1 -p tcp -e 1040 -c 0 -i 77 -a 0 -x {0.0 1.0 48 ------- null}
r -t 1.051784 -s 0 -d 1 -p tcp -e 1040 -c 0 -i 44 -a 0 -x {0.0 1.0 29 ------- null}
+ -t 1.051784 -s 1 -d 0 -p ack -e 40 -c 0 -i 78 -a 0 -x {1.0 0.0 29 ------- null}
- -t 1.051784 -s 1 -d 0 -p ack -e 40 -c 0 -i 78 -a 0 -x {1.0 0.0 29 ------- null}
h -t 1.051784 -s 1 -d 0 -p ack -e 40 -c 0 -i 78 -a 0 -x {1.0 0.0 -1 ------- null}
- -t 1.052448 -s 0 -d 1 -p tcp -e 1040 -c 0 -i 47 -a 0 -x {0.0 1.0 31 ------- null}
h -t 1.052448 -s 0 -d 1 -p tcp -e 1040 -c 0 -i 47 -a 0 -x {0.0 1.0 -1 ------- null}
r -t 1.052848 -s 1 -d 0 -p ack -e 40 -c 0 -i 78 -a 0 -x {1.0 0.0 29 ------- null}
+ -t 1.052848 -s 0 -d 1 -p tcp -e 1040 -c 0 -i 79 -a 0 -x {0.0 1.0 49 ------- null}
r -t 1.053448 -s 0 -d 1 -p tcp -e 1040 -c 0 -i 45 -a 0 -x {0.0 1.0 30 ------- null}
+ -t 1.053448 -s 1 -d 0 -p ack -e 40 -c 0 -i 80 -a 0 -x {1.0 0.0 30 ------- null}
- -t 1.053448 -s 1 -d 0 -p ack -e 40 -c 0 -i 80 -a 0 -x {1.0 0.0 30 ------- null}
h -t 1.053448 -s 1 -d 0 -p ack -e 40 -c 0 -i 80 -a 0 -x {1.0 0.0 -1 ------- null}
- -t 1.054112 -s 0 -d 1 -p tcp -e 1040 -c 0 -i 48 -a 0 -x {0.0 1.0 32 ------- null}
h -t 1.054112 -s 0 -d 1 -p tcp -e 1040 -c 0 -i 48 -a 0 -x {0.0 1.0 -1 ------- null}
r -t 1.054512 -s 1 -d 0 -p ack -e 40 -c 0 -i 80 -a 0 -x {1.0 0.0 30 ------- null}
+ -t 1.054512 -s 0 -d 1 -p tcp -e 1040 -c 0 -i 81 -a 0 -x {0.0 1.0 50 ------- null}
r -t 1.055112 -s 0 -d 1 -p tcp -e 1040 -c 0 -i 47 -a 0 -x {0.0 1.0 31 ------- null}
+ -t 1.055112 -s 1 -d 0 -p ack -e 40 -c 0 -i 82 -a 0 -x {1.0 0.0 31 ------- null}
- -t 1.055112 -s 1 -d 0 -p ack -e 40 -c 0 -i 82 -a 0 -x {1.0 0.0 31 ------- null}
h -t 1.055112 -s 1 -d 0 -p ack -e 40 -c 0 -i 82 -a 0 -x {1.0 0.0 -1 ------- null}
- -t 1.055776 -s 0 -d 1 -p tcp -e 1040 -c 0 -i 50 -a 0 -x {0.0 1.0 33 ------- null}
h -t 1.055776 -s 0 -d 1 -p tcp -e 1040 -c 0 -i 50 -a 0 -x {0.0 1.0 -1 ------- null}
r -t 1.056176 -s 1 -d 0 -p ack -e 40 -c 0 -i 82 -a 0 -x {1.0 0.0 31 ------- null}
+ -t 1.056176 -s 0 -d 1 -p tcp -e 1040 -c 0 -i 83 -a 0 -x {0.0 1.0 51 ------- null}
r -t 1.056776 -s 0 -d 1 -p tcp -e 1040 -c 0 -i 48 -a 0 -x {0.0 1.0 32 ------- null}
+ -t 1.056776 -s 1 -d 0 -p ack -e 40 -c 0 -i 84 -a 0 -x {1.0 0.0 32 ------- null}
- -t 1.056776 -s 1 -d 0 -p ack -e 40 -c 0 -i 84 -a 0 -x {1.0 0.0 32 ------- null}
h -t 1.056776 -s 1 -d 0 -p ack -e 40 -c 0 -i 84 -a 0 -x {1.0 0.0 -1 ------- null}
- -t 1.05744 -s 0 -d 1 -p tcp -e 1040 -c 0 -i 51 -a 0 -x {0.0 1.0 34 ------- null}
h -t 1.05744 -s 0 -d 1 -p tcp -e 1040 -c 0 -i 51 -a 0 -x {0.0 1.0 -1 ------- null}
r -t 1.05784 -s 1 -d 0 -p ack -e 40 -c 0 -i 84 -a 0 -x {1.0 0.0 32 ------- null}
+ -t 1.05784 -s 0 -d 1 -p tcp -e 1040 -c 0 -i 85 -a 0 -x {0.0 1.0 52 ------- null}
r -t 1.05844 -s 0 -d 1 -p tcp -e 1040 -c 0 -i 50 -a 0 -x {0.0 1.0 33 ------- null}
+ -t 1.05844 -s 1 -d 0 -p ack -e 40 -c 0 -i 86 -a 0 -x {1.0 0.0 33 ------- null}
- -t 1.05844 -s 1 -d 0 -p ack -e 40 -c 0 -i 86 -a 0 -x {1.0 0.0 33 ------- null}
h -t 1.05844 -s 1 -d 0 -p ack -e 40 -c 0 -i 86 -a 0 -x {1.0 0.0 -1 ------- null}
- -t 1.059104 -s 0 -d 1 -p tcp -e 1040 -c 0 -i 53 -a 0 -x {0.0 1.0 35 ------- null}
h -t 1.059104 -s 0 -d 1 -p tcp -e 1040 -c 0 -i 53 -a 0 -x {0.0 1.0 -1 ------- null}
r -t 1.059504 -s 1 -d 0 -p ack -e 40 -c 0 -i 86 -a 0 -x {1.0 0.0 33 ------- null}
+ -t 1.059504 -s 0 -d 1 -p tcp -e 1040 -c 0 -i 87 -a 0 -x {0.0 1.0 53 ------- null}
r -t 1.060104 -s 0 -d 1 -p tcp -e 1040 -c 0 -i 51 -a 0 -x {0.0 1.0 34 ------- null}
+ -t 1.060104 -s 1 -d 0 -p ack -e 40 -c 0 -i 88 -a 0 -x {1.0 0.0 34 ------- null}
- -t 1.060104 -s 1 -d 0 -p ack -e 40 -c 0 -i 88 -a 0 -x {1.0 0.0 34 ------- null}
h -t 1.060104 -s 1 -d 0 -p ack -e 40 -c 0 -i 88 -a 0 -x {1.0 0.0 -1 ------- null}
- -t 1.060768 -s 0 -d 1 -p tcp -e 1040 -c 0 -i 54 -a 0 -x {0.0 1.0 36 ------- null}
h -t 1.060768 -s 0 -d 1 -p tcp -e 1040 -c 0 -i 54 -a 0 -x {0.0 1.0 -1 ------- null}
r -t 1.061168 -s 1 -d 0 -p ack -e 40 -c 0 -i 88 -a 0 -x {1.0 0.0 34 ------- null}
+ -t 1.061168 -s 0 -d 1 -p tcp -e 1040 -c 0 -i 89 -a 0 -x {0.0 1.0 54 ------- null}
r -t 1.061768 -s 0 -d 1 -p tcp -e 1040 -c 0 -i 53 -a 0 -x {0.0 1.0 35 ------- null}
+ -t 1.061768 -s 1 -d 0 -p ack -e 40 -c 0 -i 90 -a 0 -x {1.0 0.0 35 ------- null}
- -t 1.061768 -s 1 -d 0 -p ack -e 40 -c 0 -i 90 -a 0 -x {1.0 0.0 35 ------- null}
h -t 1.061768 -s 1 -d 0 -p ack -e 40 -c 0 -i 90 -a 0 -x {1.0 0.0 -1 ------- null}
- -t 1.062432 -s 0 -d 1 -p tcp -e 1040 -c 0 -i 56 -a 0 -x {0.0 1.0 37 ------- null}
h -t 1.062432 -s 0 -d 1 -p tcp -e 1040 -c 0 -i 56 -a 0 -x {0.0 1.0 -1 ------- null}
r -t 1.062832 -s 1 -d 0 -p ack -e 40 -c 0 -i 90 -a 0 -x {1.0 0.0 35 ------- null}
+ -t 1.062832 -s 0 -d 1 -p tcp -e 1040 -c 0 -i 91 -a 0 -x {0.0 1.0 55 ------- null}
r -t 1.063432 -s 0 -d 1 -p tcp -e 1040 -c 0 -i 54 -a 0 -x {0.0 1.0 36 ------- null}
+ -t 1.063432 -s 1 -d 0 -p ack -e 40 -c 0 -i 92 -a 0 -x {1.0 0.0 36 ------- null}
- -t 1.063432 -s 1 -d 0 -p ack -e 40 -c 0 -i 92 -a 0 -x {1.0 0.0 36 ------- null}
h -t 1.063432 -s 1 -d 0 -p ack -e 40 -c 0 -i 92 -a 0 -x {1.0 0.0 -1 ------- null}
- -t 1.064096 -s 0 -d 1 -p tcp -e 1040 -c 0 -i 57 -a 0 -x {0.0 1.0 38 ------- null}
h -t 1.064096 -s 0 -d 1 -p tcp -e 1040 -c 0 -i 57 -a 0 -x {0.0 1.0 -1 ------- null}
r -t 1.064496 -s 1 -d 0 -p ack -e 40 -c 0 -i 92 -a 0 -x {1.0 0.0 36 ------- null}
+ -t 1.064496 -s 0 -d 1 -p tcp -e 1040 -c 0 -i 93 -a 0 -x {0.0 1.0 56 ------- null}
r -t 1.065096 -s 0 -d 1 -p tcp -e 1040 -c 0 -i 56 -a 0 -x {0.0 1.0 37 ------- null}
+ -t 1.065096 -s 1 -d 0 -p ack -e 40 -c 0 -i 94 -a 0 -x {1.0 0.0 37 ------- null}
- -t 1.065096 -s 1 -d 0 -p ack -e 40 -c 0 -i 94 -a 0 -x {1.0 0.0 37 ------- null}
h -t 1.065096 -s 1 -d 0 -p ack -e 40 -c 0 -i 94 -a 0 -x {1.0 0.0 -1 ------- null}
- -t 1.06576 -s 0 -d 1 -p tcp -e 1040 -c 0 -i 59 -a 0 -x {0.0 1.0 39 ------- null}
h -t 1.06576 -s 0 -d 1 -p tcp -e 1040 -c 0 -i 59 -a 0 -x {0.0 1.0 -1 ------- null}
r -t 1.06616 -s 1 -d 0 -p ack -e 40 -c 0 -i 94 -a 0 -x {1.0 0.0 37 ------- null}
+ -t 1.06616 -s 0 -d 1 -p tcp -e 1040 -c 0 -i 95 -a 0 -x {0.0 1.0 57 ------- null}
r -t 1.06676 -s 0 -d 1 -p tcp -e 1040 -c 0 -i 57 -a 0 -x {0.0 1.0 38 ------- null}
+ -t 1.06676 -s 1 -d 0 -p ack -e 40 -c 0 -i 96 -a 0 -x {1.0 0.0 38 ------- null}
- -t 1.06676 -s 1 -d 0 -p ack -e 40 -c 0 -i 96 -a 0 -x {1.0 0.0 38 ------- null}
h -t 1.06676 -s 1 -d 0 -p ack -e 40 -c 0 -i 96 -a 0 -x {1.0 0.0 -1 ------- null}
- -t 1.067424 -s 0 -d 1 -p tcp -e 1040 -c 0 -i 61 -a 0 -x {0.0 1.0 40 ------- null}
h -t 1.067424 -s 0 -d 1 -p tcp -e 1040 -c 0 -i 61 -a 0 -x {0.0 1.0 -1 ------- null}
r -t 1.067824 -s 1 -d 0 -p ack -e 40 -c 0 -i 96 -a 0 -x {1.0 0.0 38 ------- null}
+ -t 1.067824 -s 0 -d 1 -p tcp -e 1040 -c 0 -i 97 -a 0 -x {0.0 1.0 58 ------- null}
r -t 1.068424 -s 0 -d 1 -p tcp -e 1040 -c 0 -i 59 -a 0 -x {0.0 1.0 39 ------- null}
+ -t 1.068424 -s 1 -d 0 -p ack -e 40 -c 0 -i 98 -a 0 -x {1.0 0.0 39 ------- null}
- -t 1.068424 -s 1 -d 0 -p ack -e 40 -c 0 -i 98 -a 0 -x {1.0 0.0 39 ------- null}
h -t 1.068424 -s 1 -d 0 -p ack -e 40 -c 0 -i 98 -a 0 -x {1.0 0.0 -1 ------- null}
- -t 1.069088 -s 0 -d 1 -p tcp -e 1040 -c 0 -i 63 -a 0 -x {0.0 1.0 41 ------- null}
h -t 1.069088 -s 0 -d 1 -p tcp -e 1040 -c 0 -i 63 -a 0 -x {0.0 1.0 -1 ------- null}
r -t 1.069488 -s 1 -d 0 -p ack -e 40 -c 0 -i 98 -a 0 -x {1.0 0.0 39 ------- null}
+ -t 1.069488 -s 0 -d 1 -p tcp -e 1040 -c 0 -i 99 -a 0 -x {0.0 1.0 59 ------- null}
r -t 1.070088 -s 0 -d 1 -p tcp -e 1040 -c 0 -i 61 -a 0 -x {0.0 1.0 40 ------- null}
+ -t 1.070088 -s 1 -d 0 -p ack -e 40 -c 0 -i 100 -a 0 -x {1.0 0.0 40 ------- null}
- -t 1.070088 -s 1 -d 0 -p ack -e 40 -c 0 -i 100 -a 0 -x {1.0 0.0 40 ------- null}
h -t 1.070088 -s 1 -d 0 -p ack -e 40 -c 0 -i 100 -a 0 -x {1.0 0.0 -1 ------- null}
- -t 1.070752 -s 0 -d 1 -p tcp -e 1040 -c 0 -i 65 -a 0 -x {0.0 1.0 42 ------- null}
h -t 1.070752 -s 0 -d 1 -p tcp -e 1040 -c 0 -i 65 -a 0 -x {0.0 1.0 -1 ------- null}
r -t 1.071152 -s 1 -d 0 -p ack -e 40 -c 0 -i 100 -a 0 -x {1.0 0.0 40 ------- null}
+ -t 1.071152 -s 0 -d 1 -p tcp -e 1040 -c 0 -i 101 -a 0 -x {0.0 1.0 60 ------- null}
r -t 1.071752 -s 0 -d 1 -p tcp -e 1040 -c 0 -i 63 -a 0 -x {0.0 1.0 41 ------- null}
+ -t 1.071752 -s 1 -d 0 -p ack -e 40 -c 0 -i 102 -a 0 -x {1.0 0.0 41 ------- null}
- -t 1.071752 -s 1 -d 0 -p ack -e 40 -c 0 -i 102 -a 0 -x {1.0 0.0 41 ------- null}
h -t 1.071752 -s 1 -d 0 -p ack -e 40 -c 0 -i 102 -a 0 -x {1.0 0.0 -1 ------- null}
- -t 1.072416 -s 0 -d 1 -p tcp -e 1040 -c 0 -i 67 -a 0 -x {0.0 1.0 43 ------- null}
h -t 1.072416 -s 0 -d 1 -p tcp -e 1040 -c 0 -i 67 -a 0 -x {0.0 1.0 -1 ------- null}
r -t 1.072816 -s 1 -d 0 -p ack -e 40 -c 0 -i 102 -a 0 -x {1.0 0.0 41 ------- null}
+ -t 1.072816 -s 0 -d 1 -p tcp -e 1040 -c 0 -i 103 -a 0 -x {0.0 1.0 61 ------- null}